calculator: qe
length_unit: au
nqpoint: 204    
npath: 4      
segment_nqpoint:
- 51
- 51
- 51
- 51
reciprocal_lattice:
- [  -0.09299634,   0.09299634,   0.09299634 ] # a*
- [   0.09299634,  -0.09299634,   0.09299634 ] # b*
- [   0.09299634,   0.09299634,  -0.09299634 ] # c*
natom: 2      
lattice:
- [     0.000000000000000,     5.376555713610800,     5.376555713610800 ] # a
- [     5.376555713610800,     0.000000000000000,     5.376555713610800 ] # b
- [     5.376555713610800,     5.376555713610800,     0.000000000000000 ] # c
points:
- symbol: Na # 1
  coordinates: [  0.000000000000000,  0.000000000000000,  0.000000000000000 ]
  mass: 22.989769
- symbol: Cl # 2
  coordinates: [  0.500000000000000,  0.500000000000000,  0.500000000000000 ]
  mass: 35.453000

phonon:
- q-position: [    0.0000000,    0.0000000,    0.0000000 ]
  distance:    0.0000000
  band:
  - # 1
    frequency:   -0.0522280093
  - # 2
    frequency:   -0.0522280093
  - # 3
    frequency:   -0.0522280093
  - # 4
    frequency:    4.5350971134
  - # 5
    frequency:    4.5350971134
  - # 6
    frequency:    4.5350971134

- q-position: [    0.0100000,    0.0000000,    0.0000000 ]
  distance:    0.0016107
  band:
  - # 1
    frequency:    0.0557588241
  - # 2
    frequency:    0.0557588241
  - # 3
    frequency:    0.1229432081
  - # 4
    frequency:    4.5359133637
  - # 5
    frequency:    4.5359133637
  - # 6
    frequency:    4.5392316600

- q-position: [    0.0200000,    0.0000000,    0.0000000 ]
  distance:    0.0032215
  band:
  - # 1
    frequency:    0.1435613614
  - # 2
    frequency:    0.1435613614
  - # 3
    frequency:    0.2619490181
  - # 4
    frequency:    4.5383405448
  - # 5
    frequency:    4.5383405448
  - # 6
    frequency:    4.5515727626

- q-position: [    0.0300000,    0.0000000,    0.0000000 ]
  distance:    0.0048322
  band:
  - # 1
    frequency:    0.2230381144
  - # 2
    frequency:    0.2230381144
  - # 3
    frequency:    0.3971154067
  - # 4
    frequency:    4.5423144826
  - # 5
    frequency:    4.5423144826
  - # 6
    frequency:    4.5719350511

- q-position: [    0.0400000,    0.0000000,    0.0000000 ]
  distance:    0.0064430
  band:
  - # 1
    frequency:    0.3007825853
  - # 2
    frequency:    0.3007825853
  - # 3
    frequency:    0.5312576319
  - # 4
    frequency:    4.5477299819
  - # 5
    frequency:    4.5477299819
  - # 6
    frequency:    4.6000168715

- q-position: [    0.0500000,    0.0000000,    0.0000000 ]
  distance:    0.0080537
  band:
  - # 1
    frequency:    0.3777793185
  - # 2
    frequency:    0.3777793185
  - # 3
    frequency:    0.6648586412
  - # 4
    frequency:    4.5544433937
  - # 5
    frequency:    4.5544433937
  - # 6
    frequency:    4.6354106307

- q-position: [    0.0600000,    0.0000000,    0.0000000 ]
  distance:    0.0096645
  band:
  - # 1
    frequency:    0.4543183347
  - # 2
    frequency:    0.4543183347
  - # 3
    frequency:    0.7980435447
  - # 4
    frequency:    4.5622760645
  - # 5
    frequency:    4.5622760645
  - # 6
    frequency:    4.6776161685

- q-position: [    0.0700000,    0.0000000,    0.0000000 ]
  distance:    0.0112752
  band:
  - # 1
    frequency:    0.5305056800
  - # 2
    frequency:    0.5305056800
  - # 3
    frequency:    0.9308372852
  - # 4
    frequency:    4.5710185336
  - # 5
    frequency:    4.5710185336
  - # 6
    frequency:    4.7260562325

- q-position: [    0.0800000,    0.0000000,    0.0000000 ]
  distance:    0.0128860
  band:
  - # 1
    frequency:    0.6063814656
  - # 2
    frequency:    0.6063814656
  - # 3
    frequency:    1.0632272983
  - # 4
    frequency:    4.5804353246
  - # 5
    frequency:    4.5804353246
  - # 6
    frequency:    4.7800930839

- q-position: [    0.0900000,    0.0000000,    0.0000000 ]
  distance:    0.0144967
  band:
  - # 1
    frequency:    0.6819578708
  - # 2
    frequency:    0.6819578708
  - # 3
    frequency:    1.1951839626
  - # 4
    frequency:    4.5902701649
  - # 5
    frequency:    4.5902701649
  - # 6
    frequency:    4.8390453215

- q-position: [    0.1000000,    0.0000000,    0.0000000 ]
  distance:    0.0161074
  band:
  - # 1
    frequency:    0.7572340187
  - # 2
    frequency:    0.7572340187
  - # 3
    frequency:    1.3266685053
  - # 4
    frequency:    4.6002514615
  - # 5
    frequency:    4.6002514615
  - # 6
    frequency:    4.9022041413

- q-position: [    0.1100000,    0.0000000,    0.0000000 ]
  distance:    0.0177182
  band:
  - # 1
    frequency:    0.8322025823
  - # 2
    frequency:    0.8322025823
  - # 3
    frequency:    1.4576363489
  - # 4
    frequency:    4.6100978714
  - # 5
    frequency:    4.6100978714
  - # 6
    frequency:    4.9688484268

- q-position: [    0.1200000,    0.0000000,    0.0000000 ]
  distance:    0.0193289
  band:
  - # 1
    frequency:    0.9068529537
  - # 2
    frequency:    0.9068529537
  - # 3
    frequency:    1.5880385424
  - # 4
    frequency:    4.6195238137
  - # 5
    frequency:    4.6195238137
  - # 6
    frequency:    5.0382582562

- q-position: [    0.1300000,    0.0000000,    0.0000000 ]
  distance:    0.0209397
  band:
  - # 1
    frequency:    0.9811728120
  - # 2
    frequency:    0.9811728120
  - # 3
    frequency:    1.7178222987
  - # 4
    frequency:    4.6282447899
  - # 5
    frequency:    4.6282447899
  - # 6
    frequency:    5.1097265897

- q-position: [    0.1400000,    0.0000000,    0.0000000 ]
  distance:    0.0225504
  band:
  - # 1
    frequency:    1.0551488722
  - # 2
    frequency:    1.0551488722
  - # 3
    frequency:    1.8469310799
  - # 4
    frequency:    4.6359824008
  - # 5
    frequency:    4.6359824008
  - # 6
    frequency:    5.1825690574

- q-position: [    0.1500000,    0.0000000,    0.0000000 ]
  distance:    0.0241612
  band:
  - # 1
    frequency:    1.1287671853
  - # 2
    frequency:    1.1287671853
  - # 3
    frequency:    1.9753044411
  - # 4
    frequency:    4.6424689678
  - # 5
    frequency:    4.6424689678
  - # 6
    frequency:    5.2561318819

- q-position: [    0.1600000,    0.0000000,    0.0000000 ]
  distance:    0.0257719
  band:
  - # 1
    frequency:    1.2020131791
  - # 2
    frequency:    1.2020131791
  - # 3
    frequency:    2.1028777429
  - # 4
    frequency:    4.6474516915
  - # 5
    frequency:    4.6474516915
  - # 6
    frequency:    5.3297980539

- q-position: [    0.1700000,    0.0000000,    0.0000000 ]
  distance:    0.0273826
  band:
  - # 1
    frequency:    1.2748715465
  - # 2
    frequency:    1.2748715465
  - # 3
    frequency:    2.2295817959
  - # 4
    frequency:    4.6506963003
  - # 5
    frequency:    4.6506963003
  - # 6
    frequency:    5.4029919318

- q-position: [    0.1800000,    0.0000000,    0.0000000 ]
  distance:    0.0289934
  band:
  - # 1
    frequency:    1.3473260481
  - # 2
    frequency:    1.3473260481
  - # 3
    frequency:    2.3553424752
  - # 4
    frequency:    4.6519901603
  - # 5
    frequency:    4.6519901603
  - # 6
    frequency:    5.4751824571

- q-position: [    0.1900000,    0.0000000,    0.0000000 ]
  distance:    0.0306041
  band:
  - # 1
    frequency:    1.4193592704
  - # 2
    frequency:    1.4193592704
  - # 3
    frequency:    2.4800803275
  - # 4
    frequency:    4.6511448346
  - # 5
    frequency:    4.6511448346
  - # 6
    frequency:    5.5458851864

- q-position: [    0.2000000,    0.0000000,    0.0000000 ]
  distance:    0.0322149
  band:
  - # 1
    frequency:    1.4909523716
  - # 2
    frequency:    1.4909523716
  - # 3
    frequency:    2.6037101890
  - # 4
    frequency:    4.6479980951
  - # 5
    frequency:    4.6479980951
  - # 6
    frequency:    5.6146633309

- q-position: [    0.2100000,    0.0000000,    0.0000000 ]
  distance:    0.0338256
  band:
  - # 1
    frequency:    1.5620848365
  - # 2
    frequency:    1.5620848365
  - # 3
    frequency:    2.7261408239
  - # 4
    frequency:    4.6424153997
  - # 5
    frequency:    4.6424153997
  - # 6
    frequency:    5.6811279825

- q-position: [    0.2200000,    0.0000000,    0.0000000 ]
  distance:    0.0354364
  band:
  - # 1
    frequency:    1.6327342554
  - # 2
    frequency:    1.6327342554
  - # 3
    frequency:    2.8472745888
  - # 4
    frequency:    4.6342908595
  - # 5
    frequency:    4.6342908595
  - # 6
    frequency:    5.7449376839

- q-position: [    0.2300000,    0.0000000,    0.0000000 ]
  distance:    0.0370471
  band:
  - # 1
    frequency:    1.7028761382
  - # 2
    frequency:    1.7028761382
  - # 3
    frequency:    2.9670071262
  - # 4
    frequency:    4.6235477245
  - # 5
    frequency:    4.6235477245
  - # 6
    frequency:    5.8057974823

- q-position: [    0.2400000,    0.0000000,    0.0000000 ]
  distance:    0.0386579
  band:
  - # 1
    frequency:    1.7724837673
  - # 2
    frequency:    1.7724837673
  - # 3
    frequency:    3.0852270851
  - # 4
    frequency:    4.6101384277
  - # 5
    frequency:    4.6101384277
  - # 6
    frequency:    5.8634575902

- q-position: [    0.2500000,    0.0000000,    0.0000000 ]
  distance:    0.0402686
  band:
  - # 1
    frequency:    1.8415280886
  - # 2
    frequency:    1.8415280886
  - # 3
    frequency:    3.2018158616
  - # 4
    frequency:    4.5940442281
  - # 5
    frequency:    4.5940442281
  - # 6
    frequency:    5.9177117562

- q-position: [    0.2600000,    0.0000000,    0.0000000 ]
  distance:    0.0418793
  band:
  - # 1
    frequency:    1.9099776333
  - # 2
    frequency:    1.9099776333
  - # 3
    frequency:    3.3166473514
  - # 4
    frequency:    4.5752745004
  - # 5
    frequency:    4.5752745004
  - # 6
    frequency:    5.9683954416

- q-position: [    0.2700000,    0.0000000,    0.0000000 ]
  distance:    0.0434901
  band:
  - # 1
    frequency:    1.9777984558
  - # 2
    frequency:    1.9777984558
  - # 3
    frequency:    3.4295876965
  - # 4
    frequency:    4.5538657237
  - # 5
    frequency:    4.5538657237
  - # 6
    frequency:    6.0153838826

- q-position: [    0.2800000,    0.0000000,    0.0000000 ]
  distance:    0.0451008
  band:
  - # 1
    frequency:    2.0449540648
  - # 2
    frequency:    2.0449540648
  - # 3
    frequency:    3.5404950070
  - # 4
    frequency:    4.5298802275
  - # 5
    frequency:    4.5298802275
  - # 6
    frequency:    6.0585901149

- q-position: [    0.2900000,    0.0000000,    0.0000000 ]
  distance:    0.0467116
  band:
  - # 1
    frequency:    2.1114053168
  - # 2
    frequency:    2.1114053168
  - # 3
    frequency:    3.6492190325
  - # 4
    frequency:    4.5034047595
  - # 5
    frequency:    4.5034047595
  - # 6
    frequency:    6.0979630300

- q-position: [    0.3000000,    0.0000000,    0.0000000 ]
  distance:    0.0483223
  band:
  - # 1
    frequency:    2.1771102265
  - # 2
    frequency:    2.1771102265
  - # 3
    frequency:    3.7556007497
  - # 4
    frequency:    4.4745489487
  - # 5
    frequency:    4.4745489487
  - # 6
    frequency:    6.1334855300

- q-position: [    0.3100000,    0.0000000,    0.0000000 ]
  distance:    0.0499331
  band:
  - # 1
    frequency:    2.2420236374
  - # 2
    frequency:    2.2420236374
  - # 3
    frequency:    3.8594718313
  - # 4
    frequency:    4.4434437489
  - # 5
    frequency:    4.4434437489
  - # 6
    frequency:    6.1651728456

- q-position: [    0.3200000,    0.0000000,    0.0000000 ]
  distance:    0.0515438
  band:
  - # 1
    frequency:    2.3060966771
  - # 2
    frequency:    2.3060966771
  - # 3
    frequency:    3.9606539515
  - # 4
    frequency:    4.4102399650
  - # 5
    frequency:    4.4102399650
  - # 6
    frequency:    6.1930710826

- q-position: [    0.3300000,    0.0000000,    0.0000000 ]
  distance:    0.0531545
  band:
  - # 1
    frequency:    2.3692758964
  - # 2
    frequency:    2.3692758964
  - # 3
    frequency:    4.0589578853
  - # 4
    frequency:    4.3751069826
  - # 5
    frequency:    4.3751069826
  - # 6
    frequency:    6.2172560585

- q-position: [    0.3400000,    0.0000000,    0.0000000 ]
  distance:    0.0547653
  band:
  - # 1
    frequency:    2.4315019633
  - # 2
    frequency:    2.4315019633
  - # 3
    frequency:    4.1541823530
  - # 4
    frequency:    4.3382318580
  - # 5
    frequency:    4.3382318580
  - # 6
    frequency:    6.2378324896

- q-position: [    0.3500000,    0.0000000,    0.0000000 ]
  distance:    0.0563760
  band:
  - # 1
    frequency:    2.4927077346
  - # 2
    frequency:    2.4927077346
  - # 3
    frequency:    4.2461125695
  - # 4
    frequency:    4.2998189610
  - # 5
    frequency:    4.2998189610
  - # 6
    frequency:    6.2549335791

- q-position: [    0.3600000,    0.0000000,    0.0000000 ]
  distance:    0.0579868
  band:
  - # 1
    frequency:    2.5528154721
  - # 2
    frequency:    2.5528154721
  - # 3
    frequency:    4.2600904292
  - # 4
    frequency:    4.2600904292
  - # 5
    frequency:    4.3345184682
  - # 6
    frequency:    6.2687210442

- q-position: [    0.3700000,    0.0000000,    0.0000000 ]
  distance:    0.0595975
  band:
  - # 1
    frequency:    2.6117328823
  - # 2
    frequency:    2.6117328823
  - # 3
    frequency:    4.2192877743
  - # 4
    frequency:    4.2192877743
  - # 5
    frequency:    4.4191525965
  - # 6
    frequency:    6.2793855891

- q-position: [    0.3800000,    0.0000000,    0.0000000 ]
  distance:    0.0612083
  band:
  - # 1
    frequency:    2.6693475406
  - # 2
    frequency:    2.6693475406
  - # 3
    frequency:    4.1776751013
  - # 4
    frequency:    4.1776751013
  - # 5
    frequency:    4.4997477257
  - # 6
    frequency:    6.2871477846

- q-position: [    0.3900000,    0.0000000,    0.0000000 ]
  distance:    0.0628190
  band:
  - # 1
    frequency:    2.7255190964
  - # 2
    frequency:    2.7255190964
  - # 3
    frequency:    4.1355445655
  - # 4
    frequency:    4.1355445655
  - # 5
    frequency:    4.5760142952
  - # 6
    frequency:    6.2922592344

- q-position: [    0.4000000,    0.0000000,    0.0000000 ]
  distance:    0.0644298
  band:
  - # 1
    frequency:    2.7800684400
  - # 2
    frequency:    2.7800684400
  - # 3
    frequency:    4.0932249096
  - # 4
    frequency:    4.0932249096
  - # 5
    frequency:    4.6476379284
  - # 6
    frequency:    6.2950037921

- q-position: [    0.4100000,    0.0000000,    0.0000000 ]
  distance:    0.0660405
  band:
  - # 1
    frequency:    2.8327627488
  - # 2
    frequency:    2.8327627488
  - # 3
    frequency:    4.0510941866
  - # 4
    frequency:    4.0510941866
  - # 5
    frequency:    4.7142774293
  - # 6
    frequency:    6.2956984166

- q-position: [    0.4200000,    0.0000000,    0.0000000 ]
  distance:    0.0676512
  band:
  - # 1
    frequency:    2.8832950885
  - # 2
    frequency:    2.8832950885
  - # 3
    frequency:    4.0095980161
  - # 4
    frequency:    4.0095980161
  - # 5
    frequency:    4.7755638968
  - # 6
    frequency:    6.2946930286

- q-position: [    0.4300000,    0.0000000,    0.0000000 ]
  distance:    0.0692620
  band:
  - # 1
    frequency:    2.9312572180
  - # 2
    frequency:    2.9312572180
  - # 3
    frequency:    3.9692747486
  - # 4
    frequency:    3.9692747486
  - # 5
    frequency:    4.8311018627
  - # 6
    frequency:    6.2923684573

- q-position: [    0.4400000,    0.0000000,    0.0000000 ]
  distance:    0.0708727
  band:
  - # 1
    frequency:    2.9761049723
  - # 2
    frequency:    2.9761049723
  - # 3
    frequency:    3.9307881890
  - # 4
    frequency:    3.9307881890
  - # 5
    frequency:    4.8804736201
  - # 6
    frequency:    6.2891313078

- q-position: [    0.4500000,    0.0000000,    0.0000000 ]
  distance:    0.0724835
  band:
  - # 1
    frequency:    3.0171182715
  - # 2
    frequency:    3.0171182715
  - # 3
    frequency:    3.8949658509
  - # 4
    frequency:    3.8949658509
  - # 5
    frequency:    4.9232480487
  - # 6
    frequency:    6.2854044392

- q-position: [    0.4600000,    0.0000000,    0.0000000 ]
  distance:    0.0740942
  band:
  - # 1
    frequency:    3.0533646545
  - # 2
    frequency:    3.0533646545
  - # 3
    frequency:    3.8628338687
  - # 4
    frequency:    3.8628338687
  - # 5
    frequency:    4.9589950750
  - # 6
    frequency:    6.2816119106

- q-position: [    0.4700000,    0.0000000,    0.0000000 ]
  distance:    0.0757050
  band:
  - # 1
    frequency:    3.0836889099
  - # 2
    frequency:    3.0836889099
  - # 3
    frequency:    3.8356260126
  - # 4
    frequency:    3.8356260126
  - # 5
    frequency:    4.9873062210
  - # 6
    frequency:    6.2781579382

- q-position: [    0.4800000,    0.0000000,    0.0000000 ]
  distance:    0.0773157
  band:
  - # 1
    frequency:    3.1067704999
  - # 2
    frequency:    3.1067704999
  - # 3
    frequency:    3.8147251297
  - # 4
    frequency:    3.8147251297
  - # 5
    frequency:    5.0078203545
  - # 6
    frequency:    6.2754007464

- q-position: [    0.4900000,    0.0000000,    0.0000000 ]
  distance:    0.0789264
  band:
  - # 1
    frequency:    3.1212981363
  - # 2
    frequency:    3.1212981363
  - # 3
    frequency:    3.8014876687
  - # 4
    frequency:    3.8014876687
  - # 5
    frequency:    5.0202518945
  - # 6
    frequency:    6.2736240553

- q-position: [    0.5000000,    0.0000000,    0.0000000 ]
  distance:    0.0805372
  band:
  - # 1
    frequency:    3.1262677855
  - # 2
    frequency:    3.1262677855
  - # 3
    frequency:    3.7969450233
  - # 4
    frequency:    3.7969450233
  - # 5
    frequency:    5.0244169309
  - # 6
    frequency:    6.2730107449

- q-position: [    0.5000000,    0.0000000,    0.0000000 ]
  distance:    0.0805372
  band:
  - # 1
    frequency:    3.1262677855
  - # 2
    frequency:    3.1262677855
  - # 3
    frequency:    3.7969450233
  - # 4
    frequency:    3.7969450233
  - # 5
    frequency:    5.0244169309
  - # 6
    frequency:    6.2730107449

- q-position: [    0.5000000,    0.0100000,    0.0000000 ]
  distance:    0.0821479
  band:
  - # 1
    frequency:    3.1228151685
  - # 2
    frequency:    3.1280267138
  - # 3
    frequency:    3.7978310127
  - # 4
    frequency:    3.7997146802
  - # 5
    frequency:    5.0235838667
  - # 6
    frequency:    6.2713758147

- q-position: [    0.5000000,    0.0200000,    0.0000000 ]
  distance:    0.0837587
  band:
  - # 1
    frequency:    3.1126480961
  - # 2
    frequency:    3.1332863885
  - # 3
    frequency:    3.8004763914
  - # 4
    frequency:    3.8078492735
  - # 5
    frequency:    5.0210873274
  - # 6
    frequency:    6.2664817639

- q-position: [    0.5000000,    0.0300000,    0.0000000 ]
  distance:    0.0853694
  band:
  - # 1
    frequency:    3.0962934396
  - # 2
    frequency:    3.1419957129
  - # 3
    frequency:    3.8048432033
  - # 4
    frequency:    3.8208708572
  - # 5
    frequency:    5.0169356689
  - # 6
    frequency:    6.2583606200

- q-position: [    0.5000000,    0.0400000,    0.0000000 ]
  distance:    0.0869802
  band:
  - # 1
    frequency:    3.0745022617
  - # 2
    frequency:    3.1540702842
  - # 3
    frequency:    3.8108675590
  - # 4
    frequency:    3.8381089830
  - # 5
    frequency:    5.0111441543
  - # 6
    frequency:    6.2470651250

- q-position: [    0.5000000,    0.0500000,    0.0000000 ]
  distance:    0.0885909
  band:
  - # 1
    frequency:    3.0481237021
  - # 2
    frequency:    3.1693934620
  - # 3
    frequency:    3.8184586772
  - # 4
    frequency:    3.8588254316
  - # 5
    frequency:    5.0037370111
  - # 6
    frequency:    6.2326677796

- q-position: [    0.5000000,    0.0600000,    0.0000000 ]
  distance:    0.0902017
  band:
  - # 1
    frequency:    3.0180063557
  - # 2
    frequency:    3.1878177256
  - # 3
    frequency:    3.8274975205
  - # 4
    frequency:    3.8823109124
  - # 5
    frequency:    4.9947504123
  - # 6
    frequency:    6.2152595099

- q-position: [    0.5000000,    0.0700000,    0.0000000 ]
  distance:    0.0918124
  band:
  - # 1
    frequency:    2.9849409659
  - # 2
    frequency:    3.2091661811
  - # 3
    frequency:    3.8378350167
  - # 4
    frequency:    3.9079399277
  - # 5
    frequency:    4.9842364711
  - # 6
    frequency:    6.1949479629

- q-position: [    0.5000000,    0.0800000,    0.0000000 ]
  distance:    0.0934231
  band:
  - # 1
    frequency:    2.9496377457
  - # 2
    frequency:    3.2332340376
  - # 3
    frequency:    3.8492898858
  - # 4
    frequency:    3.9351905059
  - # 5
    frequency:    4.9722683425
  - # 6
    frequency:    6.1718554477

- q-position: [    0.5000000,    0.0900000,    0.0000000 ]
  distance:    0.0950339
  band:
  - # 1
    frequency:    2.9127250780
  - # 2
    frequency:    3.2597898178
  - # 3
    frequency:    3.8616461503
  - # 4
    frequency:    3.9636420833
  - # 5
    frequency:    4.9589465050
  - # 6
    frequency:    6.1461165484

- q-position: [    0.5000000,    0.1000000,    0.0000000 ]
  distance:    0.0966446
  band:
  - # 1
    frequency:    2.8747582488
  - # 2
    frequency:    3.2885759983
  - # 3
    frequency:    3.8746505340
  - # 4
    frequency:    3.9929629087
  - # 5
    frequency:    4.9444062317
  - # 6
    frequency:    6.1178754543

- q-position: [    0.5000000,    0.1100000,    0.0000000 ]
  distance:    0.0982554
  band:
  - # 1
    frequency:    2.8362310655
  - # 2
    frequency:    3.3193086691
  - # 3
    frequency:    3.8880101805
  - # 4
    frequency:    4.0228941643
  - # 5
    frequency:    4.9288261224
  - # 6
    frequency:    6.0872830728

- q-position: [    0.5000000,    0.1200000,    0.0000000 ]
  distance:    0.0998661
  band:
  - # 1
    frequency:    2.7975867088
  - # 2
    frequency:    3.3516756325
  - # 3
    frequency:    3.9013915269
  - # 4
    frequency:    4.0532345015
  - # 5
    frequency:    4.9124373205
  - # 6
    frequency:    6.0544940142

- q-position: [    0.5000000,    0.1300000,    0.0000000 ]
  distance:    0.1014769
  band:
  - # 1
    frequency:    2.7592263506
  - # 2
    frequency:    3.3853320861
  - # 3
    frequency:    3.9144218468
  - # 4
    frequency:    4.0838265226
  - # 5
    frequency:    4.8955326206
  - # 6
    frequency:    6.0196635689

- q-position: [    0.5000000,    0.1400000,    0.0000000 ]
  distance:    0.1030876
  band:
  - # 1
    frequency:    2.7215152209
  - # 2
    frequency:    3.4198925775
  - # 3
    frequency:    3.9266960447
  - # 4
    frequency:    4.1145456020
  - # 5
    frequency:    4.8784740411
  - # 6
    frequency:    5.9829448202

- q-position: [    0.5000000,    0.1500000,    0.0000000 ]
  distance:    0.1046984
  band:
  - # 1
    frequency:    2.6847863259
  - # 2
    frequency:    3.4549171794
  - # 3
    frequency:    3.9377928677
  - # 4
    frequency:    4.1452909349
  - # 5
    frequency:    4.8616965828
  - # 6
    frequency:    5.9444860607

- q-position: [    0.5000000,    0.1600000,    0.0000000 ]
  distance:    0.1063091
  band:
  - # 1
    frequency:    2.6493422236
  - # 2
    frequency:    3.4898886546
  - # 3
    frequency:    3.9473068030
  - # 4
    frequency:    4.1759785187
  - # 5
    frequency:    4.8457049584
  - # 6
    frequency:    5.9044286952

- q-position: [    0.5000000,    0.1700000,    0.0000000 ]
  distance:    0.1079198
  band:
  - # 1
    frequency:    2.6154553032
  - # 2
    frequency:    3.5241757122
  - # 3
    frequency:    3.9549042221
  - # 4
    frequency:    4.2065357469
  - # 5
    frequency:    4.8310594602
  - # 6
    frequency:    5.8629058106

- q-position: [    0.5000000,    0.1800000,    0.0000000 ]
  distance:    0.1095306
  band:
  - # 1
    frequency:    2.5833670088
  - # 2
    frequency:    3.5569756935
  - # 3
    frequency:    3.9604136465
  - # 4
    frequency:    4.2368973188
  - # 5
    frequency:    4.8183475934
  - # 6
    frequency:    5.8200415862

- q-position: [    0.5000000,    0.1900000,    0.0000000 ]
  distance:    0.1111413
  band:
  - # 1
    frequency:    2.5532864096
  - # 2
    frequency:    3.5872305884
  - # 3
    frequency:    3.9639569936
  - # 4
    frequency:    4.2670022207
  - # 5
    frequency:    4.8081405837
  - # 6
    frequency:    5.7759516828

- q-position: [    0.5000000,    0.2000000,    0.0000000 ]
  distance:    0.1127521
  band:
  - # 1
    frequency:    2.5253884809
  - # 2
    frequency:    3.6135215162
  - # 3
    frequency:    3.9661125780
  - # 4
    frequency:    4.2967915750
  - # 5
    frequency:    4.8009387530
  - # 6
    frequency:    5.7307447133

- q-position: [    0.5000000,    0.2100000,    0.0000000 ]
  distance:    0.1143628
  band:
  - # 1
    frequency:    2.4998124190
  - # 2
    frequency:    3.6339886720
  - # 3
    frequency:    3.9680527999
  - # 4
    frequency:    4.3262071945
  - # 5
    frequency:    4.7971157775
  - # 6
    frequency:    5.6845248484

- q-position: [    0.5000000,    0.2200000,    0.0000000 ]
  distance:    0.1159736
  band:
  - # 1
    frequency:    2.4766602707
  - # 2
    frequency:    3.6464143314
  - # 3
    frequency:    3.9715050433
  - # 4
    frequency:    4.3551907063
  - # 5
    frequency:    4.7968756910
  - # 6
    frequency:    5.6373955642

- q-position: [    0.5000000,    0.2300000,    0.0000000 ]
  distance:    0.1175843
  band:
  - # 1
    frequency:    2.4559961056
  - # 2
    frequency:    3.6486661313
  - # 3
    frequency:    3.9783265660
  - # 4
    frequency:    4.3836831354
  - # 5
    frequency:    4.8002346469
  - # 6
    frequency:    5.5894645055

- q-position: [    0.5000000,    0.2400000,    0.0000000 ]
  distance:    0.1191950
  band:
  - # 1
    frequency:    2.4378459042
  - # 2
    frequency:    3.6394534803
  - # 3
    frequency:    3.9897364323
  - # 4
    frequency:    4.4116248508
  - # 5
    frequency:    4.8070315358
  - # 6
    frequency:    5.5408494262

- q-position: [    0.5000000,    0.2500000,    0.0000000 ]
  distance:    0.1208058
  band:
  - # 1
    frequency:    2.4221982738
  - # 2
    frequency:    3.6188283610
  - # 3
    frequency:    4.0057789769
  - # 4
    frequency:    4.4389557940
  - # 5
    frequency:    4.8169616906
  - # 6
    frequency:    5.4916851902

- q-position: [    0.5000000,    0.2600000,    0.0000000 ]
  distance:    0.1224165
  band:
  - # 1
    frequency:    2.4090060350
  - # 2
    frequency:    3.5879507776
  - # 3
    frequency:    4.0255105061
  - # 4
    frequency:    4.4656159168
  - # 5
    frequency:    4.8296215916
  - # 6
    frequency:    5.4421319018

- q-position: [    0.5000000,    0.2700000,    0.0000000 ]
  distance:    0.1240273
  band:
  - # 1
    frequency:    2.3981886586
  - # 2
    frequency:    3.5484465996
  - # 3
    frequency:    4.0475936216
  - # 4
    frequency:    4.4915457652
  - # 5
    frequency:    4.8445521144
  - # 6
    frequency:    5.3923844250

- q-position: [    0.5000000,    0.2800000,    0.0000000 ]
  distance:    0.1256380
  band:
  - # 1
    frequency:    2.3896354706
  - # 2
    frequency:    3.5019211258
  - # 3
    frequency:    4.0707438784
  - # 4
    frequency:    4.5166871522
  - # 5
    frequency:    4.8612715113
  - # 6
    frequency:    5.3426839867

- q-position: [    0.5000000,    0.2900000,    0.0000000 ]
  distance:    0.1272488
  band:
  - # 1
    frequency:    2.3832094945
  - # 2
    frequency:    3.4497695815
  - # 3
    frequency:    4.0938906570
  - # 4
    frequency:    4.5409838696
  - # 5
    frequency:    4.8792932111
  - # 6
    frequency:    5.2933335917

- q-position: [    0.5000000,    0.3000000,    0.0000000 ]
  distance:    0.1288595
  band:
  - # 1
    frequency:    2.3787517634
  - # 2
    frequency:    3.3931614078
  - # 3
    frequency:    4.1161750545
  - # 4
    frequency:    4.5643823954
  - # 5
    frequency:    4.8981242139
  - # 6
    frequency:    5.2447217032

- q-position: [    0.5000000,    0.3100000,    0.0000000 ]
  distance:    0.1304703
  band:
  - # 1
    frequency:    2.3760859145
  - # 2
    frequency:    3.3330826947
  - # 3
    frequency:    4.1368987546
  - # 4
    frequency:    4.5868325585
  - # 5
    frequency:    4.9172331845
  - # 6
    frequency:    5.1973666477

- q-position: [    0.5000000,    0.3200000,    0.0000000 ]
  distance:    0.1320810
  band:
  - # 1
    frequency:    2.3750228757
  - # 2
    frequency:    3.2703851436
  - # 3
    frequency:    4.1554740523
  - # 4
    frequency:    4.6082881289
  - # 5
    frequency:    4.9359505344
  - # 6
    frequency:    5.1520207452

- q-position: [    0.5000000,    0.3300000,    0.0000000 ]
  distance:    0.1336917
  band:
  - # 1
    frequency:    2.3753654659
  - # 2
    frequency:    3.2058266840
  - # 3
    frequency:    4.1713896046
  - # 4
    frequency:    4.6287073090
  - # 5
    frequency:    4.9531618167
  - # 6
    frequency:    5.1099729811

- q-position: [    0.5000000,    0.3400000,    0.0000000 ]
  distance:    0.1353025
  band:
  - # 1
    frequency:    2.3769127511
  - # 2
    frequency:    3.1401021695
  - # 3
    frequency:    4.1841945507
  - # 4
    frequency:    4.6480531065
  - # 5
    frequency:    4.9662683307
  - # 6
    frequency:    5.0740750509

- q-position: [    0.5000000,    0.3500000,    0.0000000 ]
  distance:    0.1369132
  band:
  - # 1
    frequency:    2.3794640327
  - # 2
    frequency:    3.0738659286
  - # 3
    frequency:    4.1935012852
  - # 4
    frequency:    4.6662935743
  - # 5
    frequency:    4.9685376443
  - # 6
    frequency:    5.0513657952

- q-position: [    0.5000000,    0.3600000,    0.0000000 ]
  distance:    0.1385240
  band:
  - # 1
    frequency:    2.3828223771
  - # 2
    frequency:    3.0077481546
  - # 3
    frequency:    4.1990066491
  - # 4
    frequency:    4.6834019133
  - # 5
    frequency:    4.9534414659
  - # 6
    frequency:    5.0486945806

- q-position: [    0.5000000,    0.3700000,    0.0000000 ]
  distance:    0.1401347
  band:
  - # 1
    frequency:    2.3867976309
  - # 2
    frequency:    2.9423666126
  - # 3
    frequency:    4.2005291738
  - # 4
    frequency:    4.6993564339
  - # 5
    frequency:    4.9288419276
  - # 6
    frequency:    5.0584831670

- q-position: [    0.5000000,    0.3800000,    0.0000000 ]
  distance:    0.1417455
  band:
  - # 1