64   
2    

1    
  0.0200000000000000   0.0000000000000000   0.0000000000000000
  -0.0007553503   -0.0000000000    0.0000000000
   0.0001236397   -0.0000000000    0.0000000000
  -0.0000020003   -0.0000000000    0.0000000000
   0.0000054597   -0.0000000000    0.0000000000
  -0.0000020003   -0.0000000000    0.0000000000
   0.0000054597   -0.0000000000    0.0000000000
  -0.0000077003   -0.0000000000    0.0000000000
   0.0000082797   -0.0000000000    0.0000000000
  -0.0000241203   -0.0000012900   -0.0000012900
   0.0000176797   -0.0000013800   -0.0000013800
  -0.0000241203    0.0000012900   -0.0000012900
   0.0000176797    0.0000013800   -0.0000013800
  -0.0000241203   -0.0000012900    0.0000012900
   0.0000176797   -0.0000013800    0.0000013800
  -0.0000241203    0.0000012900    0.0000012900
   0.0000176797    0.0000013800    0.0000013800
   0.0000200297   -0.0000000000    0.0000783600
   0.0000203397   -0.0000000000   -0.0000795500
  -0.0000008703   -0.0000000000   -0.0000035000
   0.0000000097   -0.0000000000   -0.0000005000
   0.0000200297   -0.0000000000   -0.0000783600
   0.0000203397   -0.0000000000    0.0000795500
  -0.0000008703   -0.0000000000    0.0000035000
   0.0000000097   -0.0000000000    0.0000005000
   0.0000200297    0.0000783600    0.0000000000
   0.0000203397   -0.0000795500    0.0000000000
   0.0000200297   -0.0000783600    0.0000000000
   0.0000203397    0.0000795500    0.0000000000
  -0.0000008703   -0.0000035000    0.0000000000
   0.0000000097   -0.0000005000    0.0000000000
  -0.0000008703    0.0000035000    0.0000000000
   0.0000000097    0.0000005000    0.0000000000
  -0.0000026103   -0.0000166900   -0.0000166900
  -0.0000030503    0.0000188600    0.0000188600
  -0.0000026103    0.0000166900   -0.0000166900
  -0.0000030503   -0.0000188600    0.0000188600
  -0.0000026103   -0.0000166900    0.0000166900
  -0.0000030503    0.0000188600   -0.0000188600
  -0.0000026103    0.0000166900    0.0000166900
  -0.0000030503   -0.0000188600   -0.0000188600
   0.0001986597   -0.0000000000    0.0000000000
   0.0001805297   -0.0000000000    0.0000000000
   0.0000025397   -0.0000000000    0.0000000000
   0.0000016797   -0.0000000000    0.0000000000
   0.0000025397   -0.0000000000    0.0000000000
   0.0000016797   -0.0000000000    0.0000000000
   0.0000004097   -0.0000000000    0.0000000000
  -0.0000001303   -0.0000000000    0.0000000000
   0.0000725897    0.0000006700    0.0000000000
  -0.0000403103    0.0000006100    0.0000000000
   0.0000725897   -0.0000006700    0.0000000000
  -0.0000403103   -0.0000006100    0.0000000000
   0.0000091997    0.0000011600    0.0000000000
  -0.0000098103    0.0000007900    0.0000000000
   0.0000091997   -0.0000011600    0.0000000000
  -0.0000098103   -0.0000007900    0.0000000000
   0.0000725897   -0.0000000000    0.0000006700
  -0.0000403103   -0.0000000000    0.0000006100
   0.0000091997   -0.0000000000    0.0000011600
  -0.0000098103   -0.0000000000    0.0000007900
   0.0000725897   -0.0000000000   -0.0000006700
  -0.0000403103   -0.0000000000   -0.0000006100
   0.0000091997   -0.0000000000   -0.0000011600
  -0.0000098103   -0.0000000000   -0.0000007900

33   
  0.0200000000000000   0.0000000000000000   0.0000000000000000
  -0.0000022998   -0.0000182000   -0.0000182000
  -0.0000038698    0.0000167900    0.0000167900
  -0.0000022998    0.0000182000   -0.0000182000
  -0.0000038698   -0.0000167900    0.0000167900
  -0.0000022998   -0.0000182000    0.0000182000
  -0.0000038698    0.0000167900   -0.0000167900
  -0.0000022998    0.0000182000    0.0000182000
  -0.0000038698   -0.0000167900   -0.0000167900
   0.0001815202    0.0000000000    0.0000000000
   0.0001961002    0.0000000000    0.0000000000
   0.0000024802    0.0000000000    0.0000000000
   0.0000013502    0.0000000000    0.0000000000
   0.0000024802    0.0000000000    0.0000000000
   0.0000013502    0.0000000000    0.0000000000
  -0.0000005898    0.0000000000    0.0000000000
  -0.0000020198    0.0000000000    0.0000000000
   0.0000698202   -0.0000003900    0.0000000000
  -0.0000401998   -0.0000000600    0.0000000000
   0.0000698202    0.0000003900    0.0000000000
  -0.0000401998    0.0000000600    0.0000000000
   0.0000077902   -0.0000013200    0.0000000000
  -0.0000095798   -0.0000013600    0.0000000000
   0.0000077902    0.0000013200    0.0000000000
  -0.0000095798    0.0000013600    0.0000000000
   0.0000698202    0.0000000000   -0.0000003900
  -0.0000401998    0.0000000000   -0.0000000600
   0.0000077902    0.0000000000   -0.0000013200
  -0.0000095798    0.0000000000   -0.0000013600
   0.0000698202    0.0000000000    0.0000003900
  -0.0000401998    0.0000000000    0.0000000600
   0.0000077902    0.0000000000    0.0000013200
  -0.0000095798    0.0000000000    0.0000013600
  -0.0009175698    0.0000000000    0.0000000000
   0.0000555202    0.0000000000    0.0000000000
  -0.0000223198    0.0000000000    0.0000000000
   0.0000261402    0.0000000000    0.0000000000
  -0.0000223198    0.0000000000    0.0000000000
   0.0000261402    0.0000000000    0.0000000000
  -0.0000082798    0.0000000000    0.0000000000
   0.0000070902    0.0000000000    0.0000000000
  -0.0000337998    0.0000007700    0.0000007700
   0.0000211202    0.0000003100    0.0000003100
  -0.0000337998   -0.0000007700    0.0000007700
   0.0000211202   -0.0000003100    0.0000003100
  -0.0000337998    0.0000007700   -0.0000007700
   0.0000211202    0.0000003100   -0.0000003100
  -0.0000337998   -0.0000007700   -0.0000007700
   0.0000211202   -0.0000003100   -0.0000003100
   0.0000554802    0.0000000000    0.0000846500
   0.0000563502    0.0000000000   -0.0000853300
  -0.0000015398    0.0000000000    0.0000084400
  -0.0000010398    0.0000000000   -0.0000075700
   0.0000554802    0.0000000000   -0.0000846500
   0.0000563502    0.0000000000    0.0000853300
  -0.0000015398   -0.0000000000   -0.0000084400
  -0.0000010398    0.0000000000    0.0000075700
   0.0000554802    0.0000846500    0.0000000000
   0.0000563502   -0.0000853300    0.0000000000
   0.0000554802   -0.0000846500    0.0000000000
   0.0000563502    0.0000853300    0.0000000000
  -0.0000015398    0.0000084400    0.0000000000
  -0.0000010398   -0.0000075700    0.0000000000
  -0.0000015398   -0.0000084400    0.0000000000
  -0.0000010398    0.0000075700    0.0000000000
