mesh: [    32,    32,    32 ]
nqpoint: 2992   
reciprocal_lattice:
- [  -0.09299634,   0.09299634,   0.09299634 ] # a*
- [   0.09299634,  -0.09299634,   0.09299634 ] # b*
- [   0.09299634,   0.09299634,  -0.09299634 ] # c*
natom:   2      
lattice:
- [     0.000000000000000,     5.376555713610800,     5.376555713610800 ] # a
- [     5.376555713610800,     0.000000000000000,     5.376555713610800 ] # b
- [     5.376555713610800,     5.376555713610800,     0.000000000000000 ] # c
points:
- symbol: Na # 1
  coordinates: [  0.000000000000000,  0.000000000000000,  0.000000000000000 ]
  mass: 22.989769
- symbol: Cl # 2
  coordinates: [  0.500000000000000,  0.500000000000000,  0.500000000000000 ]
  mass: 35.453000

phonon:
- q-position: [    0.0156250,    0.0156250,    0.0156250 ]
  distance_from_gamma:  0.002516787
  weight: 2    
  band:
  - # 1
    frequency:     0.1073286563
  - # 2
    frequency:     0.1073286563
  - # 3
    frequency:     0.2020546623
  - # 4
    frequency:     4.5370835784
  - # 5
    frequency:     4.5370835784
  - # 6
    frequency:     4.5451728476

- q-position: [    0.0468750,    0.0156250,    0.0156250 ]
  distance_from_gamma:  0.006333776
  weight: 6    
  band:
  - # 1
    frequency:     0.2661960406
  - # 2
    frequency:     0.3106637191
  - # 3
    frequency:     0.5289733344
  - # 4
    frequency:     4.5401599760
  - # 5
    frequency:     4.5511698674
  - # 6
    frequency:     4.6011896850

- q-position: [    0.0781250,    0.0156250,    0.0156250 ]
  distance_from_gamma:  0.011161226
  weight: 6    
  band:
  - # 1
    frequency:     0.4980163956
  - # 2
    frequency:     0.5428856660
  - # 3
    frequency:     0.9258069614
  - # 4
    frequency:     4.5592755451
  - # 5
    frequency:     4.5774441269
  - # 6
    frequency:     4.7264896607

- q-position: [    0.1093750,    0.0156250,    0.0156250 ]
  distance_from_gamma:  0.016115302
  weight: 6    
  band:
  - # 1
    frequency:     0.7321454236
  - # 2
    frequency:     0.7770781540
  - # 3
    frequency:     1.3297081282
  - # 4
    frequency:     4.5874541201
  - # 5
    frequency:     4.6094845877
  - # 6
    frequency:     4.9062676784

- q-position: [    0.1406250,    0.0156250,    0.0156250 ]
  distance_from_gamma:  0.021107029
  weight: 6    
  band:
  - # 1
    frequency:     0.9638954738
  - # 2
    frequency:     1.0100902803
  - # 3
    frequency:     1.7322492226
  - # 4
    frequency:     4.6163896999
  - # 5
    frequency:     4.6389822036
  - # 6
    frequency:     5.1202680732

- q-position: [    0.1718750,    0.0156250,    0.0156250 ]
  distance_from_gamma:  0.026114826
  weight: 6    
  band:
  - # 1
    frequency:     1.1921692264
  - # 2
    frequency:     1.2407204921
  - # 3
    frequency:     2.1298282926
  - # 4
    frequency:     4.6374837984
  - # 5
    frequency:     4.6573261382
  - # 6
    frequency:     5.3475760016

- q-position: [    0.2031250,    0.0156250,    0.0156250 ]
  distance_from_gamma:  0.031130939
  weight: 6    
  band:
  - # 1
    frequency:     1.4163487784
  - # 2
    frequency:     1.4681780751
  - # 3
    frequency:     2.5196987533
  - # 4
    frequency:     4.6430378925
  - # 5
    frequency:     4.6570320664
  - # 6
    frequency:     5.5698191940

- q-position: [    0.2343750,    0.0156250,    0.0156250 ]
  distance_from_gamma:  0.036151906
  weight: 6    
  band:
  - # 1
    frequency:     1.6358808556
  - # 2
    frequency:     1.6917119721
  - # 3
    frequency:     2.8990469260
  - # 4
    frequency:     4.6272864776
  - # 5
    frequency:     4.6327684701
  - # 6
    frequency:     5.7726644616

- q-position: [    0.2656250,    0.0156250,    0.0156250 ]
  distance_from_gamma:  0.041175952
  weight: 6    
  band:
  - # 1
    frequency:     1.8501339957
  - # 2
    frequency:     1.9104368913
  - # 3
    frequency:     3.2646401306
  - # 4
    frequency:     4.5819012568
  - # 5
    frequency:     4.5869848408
  - # 6
    frequency:     5.9461964987

- q-position: [    0.2968750,    0.0156250,    0.0156250 ]
  distance_from_gamma:  0.046202073
  weight: 6    
  band:
  - # 1
    frequency:     2.0583336535
  - # 2
    frequency:     2.1232356792
  - # 3
    frequency:     3.6126474578
  - # 4
    frequency:     4.5045957548
  - # 5
    frequency:     4.5215439497
  - # 6
    frequency:     6.0846764595

- q-position: [    0.3281250,    0.0156250,    0.0156250 ]
  distance_from_gamma:  0.051229657
  weight: 6    
  band:
  - # 1
    frequency:     2.2595384588
  - # 2
    frequency:     2.3286942018
  - # 3
    frequency:     3.9385187936
  - # 4
    frequency:     4.4035885778
  - # 5
    frequency:     4.4328097103
  - # 6
    frequency:     6.1860365443

- q-position: [    0.3593750,    0.0156250,    0.0156250 ]
  distance_from_gamma:  0.056258312
  weight: 6    
  band:
  - # 1
    frequency:     2.4525946272
  - # 2
    frequency:     2.5249799701
  - # 3
    frequency:     4.2368339362
  - # 4
    frequency:     4.2838066286
  - # 5
    frequency:     4.3246475802
  - # 6
    frequency:     6.2513601309

- q-position: [    0.3906250,    0.0156250,    0.0156250 ]
  distance_from_gamma:  0.061287775
  weight: 6    
  band:
  - # 1
    frequency:     2.6359155973
  - # 2
    frequency:     2.7094434105
  - # 3
    frequency:     4.1521320115
  - # 4
    frequency:     4.2025373145
  - # 5
    frequency:     4.5010454192
  - # 6
    frequency:     6.2845460851

- q-position: [    0.4218750,    0.0156250,    0.0156250 ]
  distance_from_gamma:  0.066317862
  weight: 6    
  band:
  - # 1
    frequency:     2.8067281137
  - # 2
    frequency:     2.8773864910
  - # 3
    frequency:     4.0179351611
  - # 4
    frequency:     4.0737154339
  - # 5
    frequency:     4.7229036885
  - # 6
    frequency:     6.2923015897

- q-position: [    0.4531250,    0.0156250,    0.0156250 ]
  distance_from_gamma:  0.071348441
  weight: 6    
  band:
  - # 1
    frequency:     2.9588879023
  - # 2
    frequency:     3.0186149888
  - # 3
    frequency:     3.8958253400
  - # 4
    frequency:     3.9486146719
  - # 5
    frequency:     4.8919002626
  - # 6
    frequency:     6.2843523264

- q-position: [    0.4843750,    0.0156250,    0.0156250 ]
  distance_from_gamma:  0.076379414
  weight: 6    
  band:
  - # 1
    frequency:     3.0772976998
  - # 2
    frequency:     3.1101255925
  - # 3
    frequency:     3.8123369798
  - # 4
    frequency:     3.8458608999
  - # 5
    frequency:     4.9954817403
  - # 6
    frequency:     6.2728850966

- q-position: [   -0.4843750,    0.0156250,    0.0156250 ]
  distance_from_gamma:  0.079733579
  weight: 6    
  band:
  - # 1
    frequency:     3.1178952353
  - # 2
    frequency:     3.1305570228
  - # 3
    frequency:     3.7991043943
  - # 4
    frequency:     3.8036550044
  - # 5
    frequency:     5.0223838548
  - # 6
    frequency:     6.2690223685

- q-position: [   -0.4531250,    0.0156250,    0.0156250 ]
  distance_from_gamma:  0.074702384
  weight: 6    
  band:
  - # 1
    frequency:     3.0388820676
  - # 2
    frequency:     3.0915831205
  - # 3
    frequency:     3.8360661568
  - # 4
    frequency:     3.8733292893
  - # 5
    frequency:     4.9690253607
  - # 6
    frequency:     6.2763180111

- q-position: [   -0.4218750,    0.0156250,    0.0156250 ]
  distance_from_gamma:  0.069671533
  weight: 6    
  band:
  - # 1
    frequency:     2.9070036102
  - # 2
    frequency:     2.9793615275
  - # 3
    frequency:     3.9366759561
  - # 4
    frequency:     3.9862474363
  - # 5
    frequency:     4.8422207798
  - # 6
    frequency:     6.2880177830

- q-position: [   -0.3906250,    0.0156250,    0.0156250 ]
  distance_from_gamma:  0.064641106
  weight: 6    
  band:
  - # 1
    frequency:     2.7479407421
  - # 2
    frequency:     2.8270189004
  - # 3
    frequency:     4.0651296946
  - # 4
    frequency:     4.1140189225
  - # 5
    frequency:     4.6542977911
  - # 6
    frequency:     6.2919961978

- q-position: [   -0.3593750,    0.0156250,    0.0156250 ]
  distance_from_gamma:  0.059611210
  weight: 6    
  band:
  - # 1
    frequency:     2.5728825533
  - # 2
    frequency:     2.6523720331
  - # 3
    frequency:     4.1996983616
  - # 4
    frequency:     4.2416258676
  - # 5
    frequency:     4.4173009241
  - # 6
    frequency:     6.2766932622

- q-position: [   -0.3281250,    0.0156250,    0.0156250 ]
  distance_from_gamma:  0.054581993
  weight: 6    
  band:
  - # 1
    frequency:     2.3864702726
  - # 2
    frequency:     2.4631375168
  - # 3
    frequency:     4.1409284109
  - # 4
    frequency:     4.3280693363
  - # 5
    frequency:     4.3600305359
  - # 6
    frequency:     6.2334038942

- q-position: [   -0.2968750,    0.0156250,    0.0156250 ]
  distance_from_gamma:  0.049553660
  weight: 6    
  band:
  - # 1
    frequency:     2.1909616594
  - # 2
    frequency:     2.2630667915
  - # 3
    frequency:     3.8327957291
  - # 4
    frequency:     4.4418452577
  - # 5
    frequency:     4.4626566532
  - # 6
    frequency:     6.1563817359

- q-position: [   -0.2656250,    0.0156250,    0.0156250 ]
  distance_from_gamma:  0.044526512
  weight: 6    
  band:
  - # 1
    frequency:     1.9877781363
  - # 2
    frequency:     2.0544265463
  - # 3
    frequency:     3.4990347395
  - # 4
    frequency:     4.5348098225
  - # 5
    frequency:     4.5445201713
  - # 6
    frequency:     6.0426534603

- q-position: [   -0.2343750,    0.0156250,    0.0156250 ]
  distance_from_gamma:  0.039501001
  weight: 6    
  band:
  - # 1
    frequency:     1.7780192866
  - # 2
    frequency:     1.8388506400
  - # 3
    frequency:     3.1447561311
  - # 4
    frequency:     4.6023652045
  - # 5
    frequency:     4.6027324933
  - # 6
    frequency:     5.8921443005

- q-position: [   -0.2031250,    0.0156250,    0.0156250 ]
  distance_from_gamma:  0.034477842
  weight: 6    
  band:
  - # 1
    frequency:     1.5626007867
  - # 2
    frequency:     1.6176027454
  - # 3
    frequency:     2.7742646256
  - # 4
    frequency:     4.6350877269
  - # 5
    frequency:     4.6437122481
  - # 6
    frequency:     5.7080963145

- q-position: [   -0.1718750,    0.0156250,    0.0156250 ]
  distance_from_gamma:  0.029458240
  weight: 6    
  band:
  - # 1
    frequency:     1.3422857121
  - # 2
    frequency:     1.3916531045
  - # 3
    frequency:     2.3911915016
  - # 4
    frequency:     4.6441056247
  - # 5
    frequency:     4.6585345749
  - # 6
    frequency:     5.4976090996

- q-position: [   -0.1406250,    0.0156250,    0.0156250 ]
  distance_from_gamma:  0.024444384
  weight: 6    
  band:
  - # 1
    frequency:     1.1177268929
  - # 2
    frequency:     1.1617247318
  - # 3
    frequency:     1.9986351966
  - # 4
    frequency:     4.6334706325
  - # 5
    frequency:     4.6508076093
  - # 6
    frequency:     5.2720925997

- q-position: [   -0.1093750,    0.0156250,    0.0156250 ]
  distance_from_gamma:  0.019440722
  weight: 6    
  band:
  - # 1
    frequency:     0.8895717176
  - # 2
    frequency:     0.9283511719
  - # 3
    frequency:     1.5994069149
  - # 4
    frequency:     4.6095813976
  - # 5
    frequency:     4.6267228631
  - # 6
    frequency:     5.0473562956

- q-position: [   -0.0781250,    0.0156250,    0.0156250 ]
  distance_from_gamma:  0.014457842
  weight: 6    
  band:
  - # 1
    frequency:     0.6586840222
  - # 2
    frequency:     0.6919119484
  - # 3
    frequency:     1.1965887524
  - # 4
    frequency:     4.5804163432
  - # 5
    frequency:     4.5943527236
  - # 6
    frequency:     4.8429384361

- q-position: [   -0.0468750,    0.0156250,    0.0156250 ]
  distance_from_gamma:  0.009528403
  weight: 6    
  band:
  - # 1
    frequency:     0.4267975408
  - # 2
    frequency:     0.4525245900
  - # 3
    frequency:     0.7953547923
  - # 4
    frequency:     4.5543007842
  - # 5
    frequency:     4.5625235816
  - # 6
    frequency:     4.6801484901

- q-position: [   -0.0156250,    0.0156250,    0.0156250 ]
  distance_from_gamma:  0.004819281
  weight: 6    
  band:
  - # 1
    frequency:     0.2010864343
  - # 2
    frequency:     0.2112094996
  - # 3
    frequency:     0.4129783982
  - # 4
    frequency:     4.5383726627
  - # 5
    frequency:     4.5399647066
  - # 6
    frequency:     4.5779579008

- q-position: [    0.0468750,    0.0468750,    0.0156250 ]
  distance_from_gamma:  0.007550362
  weight: 6    
  band:
  - # 1
    frequency:     0.3130175467
  - # 2
    frequency:     0.3210271980
  - # 3
    frequency:     0.6603051454
  - # 4
    frequency:     4.5409366749
  - # 5
    frequency:     4.5426891556
  - # 6
    frequency:     4.6444314785

- q-position: [    0.0781250,    0.0468750,    0.0156250 ]
  distance_from_gamma:  0.011161226
  weight: 12   
  band:
  - # 1
    frequency:     0.4639749524
  - # 2
    frequency:     0.5086809321
  - # 3
    frequency:     0.9597087887
  - # 4
    frequency:     4.5465204718
  - # 5
    frequency:     4.5629841904
  - # 6
    frequency:     4.7538715970

- q-position: [    0.1093750,    0.0468750,    0.0156250 ]
  distance_from_gamma:  0.015582416
  weight: 12   
  band:
  - # 1
    frequency:     0.6697492491
  - # 2
    frequency:     0.7374589367
  - # 3
    frequency:     1.3105946062
  - # 4
    frequency:     4.5666044958
  - # 5
    frequency:     4.5965491849
  - # 6
    frequency:     4.9126800826

- q-position: [    0.1406250,    0.0468750,    0.0156250 ]
  distance_from_gamma:  0.020290988
  weight: 12   
  band:
  - # 1
    frequency:     0.8877281510
  - # 2
    frequency:     0.9739210392
  - # 3
    frequency:     1.6812054853
  - # 4
    frequency:     4.5931422544
  - # 5
    frequency:     4.6314754753
  - # 6
    frequency:     5.1072646184

- q-position: [    0.1718750,    0.0468750,    0.0156250 ]
  distance_from_gamma:  0.025125891
  weight: 12   
  band:
  - # 1
    frequency:     1.1070640712
  - # 2
    frequency:     1.2105925700
  - # 3
    frequency:     2.0582431571
  - # 4
    frequency:     4.6173222480
  - # 5
    frequency:     4.6569937017
  - # 6
    frequency:     5.3199026245

- q-position: [    0.2031250,    0.0468750,    0.0156250 ]
  distance_from_gamma:  0.030026162
  weight: 12   
  band:
  - # 1
    frequency:     1.3242710415
  - # 2
    frequency:     1.4450381160
  - # 3
    frequency:     2.4345604277
  - # 4
    frequency:     4.6309287057
  - # 5
    frequency:     4.6641728511
  - # 6
    frequency:     5.5329889744

- q-position: [    0.2343750,    0.0468750,    0.0156250 ]
  distance_from_gamma:  0.034964326
  weight: 12   
  band:
  - # 1
    frequency:     1.5377614732
  - # 2
    frequency:     1.6759864566
  - # 3
    frequency:     2.8052458138
  - # 4
    frequency:     4.6271954527
  - # 5
    frequency:     4.6466785310
  - # 6
    frequency:     5.7317362401

- q-position: [    0.2656250,    0.0468750,    0.0156250 ]
  distance_from_gamma:  0.039926327
  weight: 12   
  band:
  - # 1
    frequency:     1.7465518114
  - # 2
    frequency:     1.9023409123
  - # 3
    frequency:     3.1660498171
  - # 4
    frequency:     4.5987133765
  - # 5
    frequency:     4.6040099495
  - # 6
    frequency:     5.9052461326

- q-position: [    0.2968750,    0.0468750,    0.0156250 ]
  distance_from_gamma:  0.044904262
  weight: 12   
  band:
  - # 1
    frequency:     1.9498511901
  - # 2
    frequency:     2.1228446365
  - # 3
    frequency:     3.5126712653
  - # 4
    frequency:     4.5258438009
  - # 5
    frequency:     4.5534866988
  - # 6
    frequency:     6.0466326214

- q-position: [    0.3281250,    0.0468750,    0.0156250 ]
  distance_from_gamma:  0.049893364
  weight: 12   
  band:
  - # 1
    frequency:     2.1469203557
  - # 2
    frequency:     2.3359183164
  - # 3
    frequency:     3.8403945180
  - # 4
    frequency:     4.4254742410
  - # 5
    frequency:     4.4812001035
  - # 6
    frequency:     6.1526885777

- q-position: [    0.3593750,    0.0468750,    0.0156250 ]
  distance_from_gamma:  0.054890586
  weight: 12   
  band:
  - # 1
    frequency:     2.3370217439
  - # 2
    frequency:     2.5394851581
  - # 3
    frequency:     4.1438457043
  - # 4
    frequency:     4.3040247745
  - # 5
    frequency:     4.3882832687
  - # 6
    frequency:     6.2234159918

- q-position: [    0.3906250,    0.0468750,    0.0156250 ]
  distance_from_gamma:  0.059893897
  weight: 12   
  band:
  - # 1
    frequency:     2.5193252132
  - # 2
    frequency:     2.7305350018
  - # 3
    frequency:     4.1689012031
  - # 4
    frequency:     4.2787446126
  - # 5
    frequency:     4.4167336129
  - # 6
    frequency:     6.2616548358

- q-position: [    0.4218750,    0.0468750,    0.0156250 ]
  distance_from_gamma:  0.064901888
  weight: 12   
  band:
  - # 1
    frequency:     2.6925511537
  - # 2
    frequency:     2.9038298869
  - # 3
    frequency:     4.0303605236
  - # 4
    frequency:     4.1579519990
  - # 5
    frequency:     4.6513026571
  - # 6
    frequency:     6.2729996596

- q-position: [    0.4531250,    0.0468750,    0.0156250 ]
  distance_from_gamma:  0.069913554
  weight: 12   
  band:
  - # 1
    frequency:     2.8538778256
  - # 2
    frequency:     3.0482186838
  - # 3
    frequency:     3.9044434835
  - # 4
    frequency:     4.0329608796
  - # 5
    frequency:     4.8377479823
  - # 6
    frequency:     6.2660423196

- q-position: [    0.4843750,    0.0468750,    0.0156250 ]
  distance_from_gamma:  0.074928157
  weight: 12   
  band:
  - # 1
    frequency:     2.9958906463
  - # 2
    frequency:     3.1388574448
  - # 3
    frequency:     3.8201629123
  - # 4
    frequency:     3.9148962206
  - # 5
    frequency:     4.9638344768
  - # 6
    frequency:     6.2523496193

- q-position: [    0.5156250,    0.0468750,    0.0156250 ]
  distance_from_gamma:  0.079945144
  weight: 12   
  band:
  - # 1
    frequency:     3.0976822455
  - # 2
    frequency:     3.1429650305
  - # 3
    frequency:     3.8126413574
  - # 4
    frequency:     3.8278158555
  - # 5
    frequency:     5.0169506025
  - # 6
    frequency:     6.2442094323

- q-position: [   -0.4531250,    0.0468750,    0.0156250 ]
  distance_from_gamma:  0.076600244
  weight: 12   
  band:
  - # 1
    frequency:     3.0520565095
  - # 2
    frequency:     3.1345022613
  - # 3
    frequency:     3.7997025248
  - # 4
    frequency:     3.8894648702
  - # 5
    frequency:     4.9900794137
  - # 6
    frequency:     6.2485245202

- q-position: [   -0.4218750,    0.0468750,    0.0156250 ]
  distance_from_gamma:  0.071584792
  weight: 12   
  band:
  - # 1
    frequency:     2.9191343005
  - # 2
    frequency:     3.0715387629
  - # 3
    frequency:     3.8598546102
  - # 4
    frequency:     4.0019928361
  - # 5
    frequency:     4.8869035554
  - # 6
    frequency:     6.2616554786

- q-position: [   -0.3906250,    0.0468750,    0.0156250 ]
  distance_from_gamma:  0.066572076
  weight: 12   
  band:
  - # 1
    frequency:     2.7618753242
  - # 2
    frequency:     2.9435362511
  - # 3
    frequency:     3.9750062736
  - # 4
    frequency:     4.1265981089
  - # 5
    frequency:     4.7189630760
  - # 6
    frequency:     6.2722865631

- q-position: [   -0.3593750,    0.0468750,    0.0156250 ]
  distance_from_gamma:  0.061562763
  weight: 12   
  band:
  - # 1
    frequency:     2.5909917801
  - # 2
    frequency:     2.7801529043
  - # 3
    frequency:     4.1114035816
  - # 4
    frequency:     4.2495069051
  - # 5
    frequency:     4.4990254834
  - # 6
    frequency:     6.2681586963

- q-position: [   -0.3281250,    0.0468750,    0.0156250 ]
  distance_from_gamma:  0.056557759
  weight: 12   
  band:
  - # 1
    frequency:     2.4103215334
  - # 2
    frequency:     2.5961936820
  - # 3
    frequency:     4.2376985034
  - # 4
    frequency:     4.2496141150
  - # 5
    frequency:     4.3627224751
  - # 6
    frequency:     6.2396099543

- q-position: [   -0.2968750,    0.0468750,    0.0156250 ]
  distance_from_gamma:  0.051558318
  weight: 12   
  band:
  - # 1
    frequency:     2.2214170515
  - # 2
    frequency:     2.3984250962
  - # 3
    frequency:     3.9433855515
  - # 4
    frequency:     4.3779106844
  - # 5
    frequency:     4.4603802753
  - # 6
    frequency:     6.1800496536

- q-position: [   -0.2656250,    0.0468750,    0.0156250 ]
  distance_from_gamma:  0.046566232
  weight: 12   
  band:
  - # 1
    frequency:     2.0251230168
  - # 2
    frequency:     2.1905253470
  - # 3
    frequency:     3.6227231874
  - # 4
    frequency:     4.4881016055
  - # 5
    frequency:     4.5380413734
  - # 6
    frequency:     6.0856799638

- q-position: [   -0.2343750,    0.0468750,    0.0156250 ]
  distance_from_gamma:  0.041584150
  weight: 12   
  band:
  - # 1
    frequency:     1.8221128062
  - # 2
    frequency:     1.9749480434
  - # 3
    frequency:     3.2813455020
  - # 4
    frequency:     4.5742315537
  - # 5
    frequency:     4.5927924527
  - # 6
    frequency:     5.9554557162

- q-position: [   -0.2031250,    0.0468750,    0.0156250 ]
  distance_from_gamma:  0.036616155
  weight: 12   
  band:
  - # 1
    frequency:     1.6130459080
  - # 2
    frequency:     1.7535647574
  - # 3
    frequency:     2.9241163831
  - # 4
    frequency:     4.6227586787
  - # 5
    frequency:     4.6336602847
  - # 6
    frequency:     5.7913745121

- q-position: [   -0.1718750,    0.0468750,    0.0156250 ]
  distance_from_gamma:  0.031668879
  weight: 12   
  band:
  - # 1
    frequency:     1.3986292427
  - # 2
    frequency:     1.5279088281
  - # 3
    frequency:     2.5553667941
  - # 4
    frequency:     4.6308675326
  - # 5
    frequency:     4.6640574474
  - # 6
    frequency:     5.5989363714

- q-position: [   -0.1406250,    0.0468750,    0.0156250 ]
  distance_from_gamma:  0.026753816
  weight: 12   
  band:
  - # 1
    frequency:     1.1797509481
  - # 2
    frequency:     1.2993456319
  - # 3
    frequency:     2.1791665967
  - # 4
    frequency:     4.6200435668
  - # 5
    frequency:     4.6686690803
  - # 6
    frequency:     5.3875594975

- q-position: [   -0.1093750,    0.0468750,    0.0156250 ]
  distance_from_gamma:  0.021892674
  weight: 12   
  band:
  - # 1
    frequency:     0.9578909716
  - # 2
    frequency:     1.0693325056
  - # 3
    frequency:     1.7998236891
  - # 4
    frequency:     4.5969778106
  - # 5
    frequency:     4.6523579944
  - # 6
    frequency:     5.1706875533

- q-position: [   -0.0781250,    0.0468750,    0.0156250 ]
  distance_from_gamma:  0.017131417
  weight: 12   
  band:
  - # 1
    frequency:     0.7363996242
  - # 2
    frequency:     0.8399718499
  - # 3
    frequency:     1.4229672264
  - # 4
    frequency:     4.5701573489
  - # 5
    frequency:     4.6225469512
  - # 6
    frequency:     4.9652199749

- q-position: [   -0.0468750,    0.0468750,    0.0156250 ]
  distance_from_gamma:  0.012583936
  weight: 12   
  band:
  - # 1
    frequency:     0.5251848037
  - # 2
    frequency:     0.6155753892
  - # 3
    frequency:     1.0583277976
  - # 4
    frequency:     4.5490892650
  - # 5
    frequency:     4.5881369911
  - # 6
    frequency:     4.7897864077

- q-position: [   -0.0156250,    0.0468750,    0.0156250 ]
  distance_from_gamma:  0.008596465
  weight: 12   
  band:
  - # 1
    frequency:     0.3591018517
  - # 2
    frequency:     0.4092894277
  - # 3
    frequency:     0.7292964777
  - # 4
    frequency:     4.5427286348
  - # 5
    frequency:     4.5583832024
  - # 6
    frequency:     4.6617501563

- q-position: [    0.0781250,    0.0781250,    0.0156250 ]
  distance_from_gamma:  0.013238078
  weight: 6    
  band:
  - # 1
    frequency:     0.5444049244
  - # 2
    frequency:     0.5502273237
  - # 3
    frequency:     1.1627430667
  - # 4
    frequency:     4.5497637586
  - # 5
    frequency:     4.5514640017
  - # 6
    frequency:     4.8572704797

- q-position: [    0.1093750,    0.0781250,    0.0156250 ]
  distance_from_gamma:  0.016631121
  weight: 12   
  band:
  - # 1
    frequency:     0.6847371946
  - # 2
    frequency:     0.7183585844
  - # 3
    frequency:     1.4403721903
  - # 4
    frequency:     4.5576363486
  - # 5
    frequency:     4.5724929574
  - # 6
    frequency:     5.0026007293

- q-position: [    0.1406250,    0.0781250,    0.0156250 ]
  distance_from_gamma:  0.020703029
  weight: 12   
  band:
  - # 1
    frequency:     0.8664249731
  - # 2
    frequency:     0.9367770321
  - # 3
    frequency:     1.7538388693
  - # 4
    frequency:     4.5771612956
  - # 5
    frequency:     4.6056186433
  - # 6
    frequency:     5.1752167645

- q-position: [    0.1718750,    0.0781250,    0.0156250 ]
  distance_from_gamma:  0.025125891
  weight: 12   
  band:
  - # 1
    frequency:     1.0628204892
  - # 2
    frequency:     1.1748536547
  - # 3
    frequency:     2.0860002917
  - # 4
    frequency:     4.5998487619
  - # 5
    frequency:     4.6378391333
  - # 6
    frequency:     5.3623747788

- q-position: [    0.2031250,    0.0781250,    0.0156250 ]
  distance_from_gamma:  0.029743556
  weight: 12   
  band:
  - # 1
    frequency:     1.2634182831
  - # 2
    frequency:     1.4186425746
  - # 3
    frequency:     2.4271056528
  - # 4
    frequency:     4.6172376012
  - # 5
    frequency:     4.6564264589
  - # 6
    frequency:     5.5511151597

- q-position: [    0.2343750,    0.0781250,    0.0156250 ]
  distance_from_gamma:  0.034477842
  weight: 12   
  band:
  - # 1
    frequency:     1.4635912871
  - # 2
    frequency:     1.6619202609
  - # 3
    frequency:     2.7704293611
  - # 4
    frequency:     4.6219739862
  - # 5
    frequency:     4.6516266023
  - # 6
    frequency:     5.7293828585

- q-position: [    0.2656250,    0.0781250,    0.0156250 ]
  distance_from_gamma:  0.039286611
  weight: 12   
  band:
  - # 1
    frequency:     1.6609279414
  - # 2
    frequency:     1.9014826737
  - # 3
    frequency:     3.1105106242
  - # 4
    frequency:     4.6071917702
  - # 5
    frequency:     4.6190031507
  - # 6
    frequency:     5.8872879481

- q-position: [    0.2968750,    0.0781250,    0.0156250 ]
  distance_from_gamma:  0.044145530
  weight: 12   
  band:
  - # 1
    frequency:     1.8539999996
  - # 2
    frequency:     2.1351467485
  - # 3
    frequency:     3.4422747692
  - # 4
    frequency:     4.5494351894
  - # 5
    frequency:     4.5769874112
  - # 6
    frequency:     6.0178283662

- q-position: [    0.3281250,    0.0781250,    0.0156250 ]
  distance_from_gamma:  0.049039693
  weight: 12   
  band:
  - # 1
    frequency:     2.0418834606
  - # 2
    frequency:     2.3608945318
  - # 3
    frequency:     3.7605424517
  - # 4
    frequency:     4.4545723653
  - # 5
    frequency:     4.5206372061
  - # 6
    frequency:     6.1170673654

- q-position: [    0.3593750,    0.0781250,    0.0156250 ]
  distance_from_gamma:  0.053959512
  weight: 12   
  band:
  - # 1
    frequency:     2.2239745581
  - # 2
    frequency:     2.5763836324
  - # 3
    frequency:     4.0597155954
  - # 4
    frequency:     4.3347019955
  - # 5
    frequency:     4.4439544291
  - # 6
    frequency:     6.1839794388

- q-position: [    0.3906250,    0.0781250,    0.0156250 ]
  distance_from_gamma:  0.058898558
  weight: 12   
  band:
  - # 1
    frequency:     2.3998988627
  - # 2
    frequency:     2.7783387947
  - # 3
    frequency:     4.1979033537
  - # 4
    frequency:     4.3335178278
  - # 5
    frequency:     4.3493298673
  - # 6
    frequency:     6.2202217719

- q-position: [    0.4218750,    0.0781250,    0.0156250 ]
  distance_from_gamma:  0.063852369
  weight: 12   
  band:
  - # 1
    frequency:     2.5693350065
  - # 2
    frequency:     2.9610668704
  - # 3
    frequency:     4.0554783967
  - # 4
    frequency:     4.2405453071
  - # 5
    frequency:     4.5744528610
  - # 6
    frequency:     6.2300793459

- q-position: [    0.4531250,    0.0781250,    0.0156250 ]
  distance_from_gamma:  0.068817758
  weight: 12   
  band:
  - # 1
    frequency:     2.7314820177
  - # 2
    frequency:     3.1121550647
  - # 3
    frequency:     3.9254312734
  - # 4
    frequency:     4.1224264181
  - # 5
    frequency:     4.7732722397
  - # 6
    frequency:     6.2207548274

- q-position: [    0.4843750,    0.0781250,    0.0156250 ]
  distance_from_gamma:  0.073792386
  weight: 12   
  band:
  - # 1
    frequency:     2.8835851446
  - # 2
    frequency:     3.2028407042
  - # 3
    frequency:     3.8414658657
  - # 4
    frequency:     4.0016248719
  - # 5
    frequency:     4.9181327037
  - # 6
    frequency:     6.2027604996

- q-position: [    0.5156250,    0.0781250,    0.0156250 ]
  distance_from_gamma:  0.078774503
  weight: 12   
  band:
  - # 1
    frequency:     3.0167801455
  - # 2
    frequency:     3.1954509618
  - # 3
    frequency:     3.8441985852
  - # 4
    frequency:     3.8907969329
  - # 5
    frequency:     4.9954676293
  - # 6
    frequency:     6.1888764607

- q-position: [   -0.4531250,    0.0781250,    0.0156250 ]
  distance_from_gamma:  0.078774503
  weight: 12   
  band:
  - # 1
    frequency:     3.0823385061
  - # 2
    frequency:     3.1283372604
  - # 3
    frequency:     3.8080837874
  - # 4
    frequency:     3.9295499171
  - # 5
    frequency:     4.9949612227
  - # 6
    frequency:     6.1890302959

- q-position: [   -0.4218750,    0.0781250,    0.0156250 ]
  distance_from_gamma:  0.073792386
  weight: 12   
  band:
  - # 1
    frequency:     2.9555866008
  - # 2
    frequency:     3.1316733211
  - # 3
    frequency:     3.8006542953
  - # 4
    frequency:     4.0449702014
  - # 5
    frequency:     4.9165606056
  - # 6
    frequency:     6.2032135306

- q-position: [   -0.3906250,    0.0781250,    0.0156250 ]
  distance_from_gamma:  0.068817758
  weight: 12   
  band:
  - # 1
    frequency:     2.7993548802
  - # 2
    frequency:     3.0531404900
  - # 3
    frequency:     3.8773659631
  - # 4
    frequency:     4.1676467550
  - # 5
    frequency:     4.7704738941
  - # 6
    frequency:     6.2214721910

- q-position: [   -0.3593750,    0.0781250,    0.0156250 ]
  distance_from_gamma:  0.063852369
  weight: 12   