96   
18   

1    
  0.0074985587831579   0.0073976341109208   0.0170013712898833
  -0.0013868396   -0.0012839596   -0.0169465902
   0.0002604204   -0.0001464896   -0.0141006302
  -0.0001516696    0.0002618404   -0.0141291202
   0.0001515904    0.0001349704   -0.0140148702
   0.0000603204    0.0001191304   -0.0135036702
  -0.0001065496    0.0000478504   -0.0135895202
   0.0001034604   -0.0000908296   -0.0135593802
  -0.0000623396   -0.0000674696   -0.0136385402
   0.0008957404   -0.0002137496    0.0145050898
  -0.0006100096   -0.0003157296    0.0137933498
   0.0001382004    0.0001284004    0.0139173498
  -0.0001669296    0.0000781404    0.0137605698
  -0.0001415396    0.0005174504    0.0143541998
   0.0000882304    0.0001306504    0.0139580398
  -0.0001610896   -0.0003900396    0.0139527398
   0.0001293504   -0.0001332696    0.0138594598
  -0.0004735496    0.0001383704    0.0038621898
   0.0004442704    0.0005281404    0.0043871798
   0.0006963904    0.0009229004    0.0037914398
   0.0001998004   -0.0001811396    0.0040017198
   0.0000223804    0.0000098304    0.0046629698
  -0.0000113896    0.0000043204    0.0047466498
  -0.0000413396   -0.0000321296    0.0047086298
   0.0000125004    0.0000040704    0.0047659398
   0.0003606904    0.0010832004   -0.0037379602
   0.0000987104    0.0000763104   -0.0044908202
  -0.0005407196   -0.0007431496   -0.0041377702
   0.0000795004   -0.0000277696   -0.0045961702
   0.0010354904   -0.0005377296   -0.0038411502
  -0.0004779396    0.0001382104   -0.0042456602
   0.0000415904    0.0000480104   -0.0045103202
  -0.0000309396    0.0000642404   -0.0045623302
  -0.0001826996   -0.0009857896    0.0004343198
  -0.0001890996   -0.0013053596    0.0005383998
  -0.0003401296   -0.0015257296    0.0000671598
  -0.0000391296   -0.0011929696    0.0003524098
  -0.0001575496   -0.0013664696    0.0000287198
  -0.0002091596   -0.0013642296    0.0000637498
  -0.0001405696   -0.0012637496    0.0000930598
  -0.0002039596   -0.0012861596    0.0000773998
  -0.0001727796    0.0015737904    0.0009871098
  -0.0003491696    0.0015908304    0.0004368198
  -0.0004643696    0.0015211904    0.0004036298
  -0.0004230196    0.0015151404    0.0003681598
  -0.0003283096    0.0017165404    0.0000503298
  -0.0003386896    0.0017238004    0.0001101198
  -0.0003303896    0.0017454604    0.0001348298
  -0.0003054496    0.0017651704    0.0001264798
  -0.0000171196    0.0012086704    0.0000635698
  -0.0000367096    0.0012318004   -0.0001548102
   0.0003006404    0.0014448904    0.0000251298
   0.0001323804    0.0012635604   -0.0001120102
  -0.0000089996    0.0009913904   -0.0004381602
   0.0001477404    0.0011621204   -0.0003187002
   0.0001493804    0.0012616204   -0.0002241902
   0.0002142804    0.0013004304   -0.0002065202
   0.0007643804   -0.0013464696    0.0000108798
   0.0003609704   -0.0016589196   -0.0001101602
   0.0002439404   -0.0020425696   -0.0000530502
   0.0003060604   -0.0017331396   -0.0001496302
   0.0002787404   -0.0017488096   -0.0002798402
   0.0003098604   -0.0017161596   -0.0002666502
   0.0004974404   -0.0013551396   -0.0004607302
   0.0004203004   -0.0015501696   -0.0003484002
  -0.0087539296    0.0053838104    0.0054002098
  -0.0084625396    0.0051612704    0.0052160798
  -0.0088548096    0.0054812504    0.0054376298
  -0.0084806196    0.0052841304    0.0053116198
  -0.0083184696    0.0053746104    0.0052779598
  -0.0091049796    0.0055547804    0.0056840798
  -0.0087026596    0.0052630504    0.0054899198
  -0.0087730796    0.0053613404    0.0054782698
   0.0081590804   -0.0050244396    0.0052209398
   0.0083979804   -0.0050929896    0.0054370598
   0.0082471404   -0.0049753896    0.0052928398
   0.0084073804   -0.0050939396    0.0054463298
   0.0077454104   -0.0048249096    0.0048781698
   0.0085476404   -0.0051147596    0.0055770398
   0.0084226404   -0.0050620496    0.0054893798
   0.0084107904   -0.0051207896    0.0055255298
   0.0087175504   -0.0055645196   -0.0053795702
   0.0088416004   -0.0054479696   -0.0054826802
   0.0084824304   -0.0050304696   -0.0051011702
   0.0083935404   -0.0052032496   -0.0052145302
   0.0087797204   -0.0053667396   -0.0056037902
   0.0087970404   -0.0053914796   -0.0055389602
   0.0087670104   -0.0054008396   -0.0055712302
   0.0088015304   -0.0054085296   -0.0055253802
  -0.0078349396    0.0048279704   -0.0050273502
  -0.0085317296    0.0050988104   -0.0054376602
  -0.0081543896    0.0049159904   -0.0051910802
  -0.0084947696    0.0051479804   -0.0054826802
  -0.0084896696    0.0050920504   -0.0055939702
  -0.0084034196    0.0051074604   -0.0055740302
  -0.0084730996    0.0051162504   -0.0055621802
  -0.0084299896    0.0051051504   -0.0055492302

1    
 -0.0074985587831579  -0.0073976341109208  -0.0170013712898833
   0.0013532702    0.0012607699   -0.0108386802
  -0.0002633298    0.0001482899   -0.0136218402
   0.0001468502   -0.0002542301   -0.0135917902
  -0.0001536998   -0.0001291201   -0.0137066702
  -0.0000631098   -0.0001145801   -0.0142153902
   0.0001024602   -0.0000417501   -0.0141255302
  -0.0001070098    0.0000947799   -0.0141612602
   0.0000586202    0.0000700899   -0.0140783702
  -0.0008836598    0.0002048599    0.0132234098
   0.0006127002    0.0003073999    0.0139239998
  -0.0001345098   -0.0001307401    0.0138033998
   0.0001697502   -0.0000808401    0.0139583798
   0.0001492102   -0.0005273001    0.0133611798
  -0.0000870898   -0.0001336701    0.0137642098
   0.0001655502    0.0003856399    0.0137692698
  -0.0001268698    0.0001286599    0.0138608598
   0.0004582802   -0.0001407601    0.0052096698
  -0.0004505198   -0.0005271901    0.0046993298
  -0.0007018198   -0.0009233801    0.0052819398
  -0.0002017598    0.0001749299    0.0050693398
  -0.0000303698   -0.0000140801    0.0044167298
   0.0000015002   -0.0000076901    0.0043328998
   0.0000353302    0.0000279199    0.0043701998
  -0.0000216998   -0.0000086701    0.0043148698
  -0.0003529598   -0.0010720601   -0.0053344502
  -0.0000905198   -0.0000701701   -0.0045887202
   0.0005501802    0.0007484899   -0.0049442002
  -0.0000728798    0.0000308699   -0.0044847002
  -0.0010444098    0.0005511999   -0.0052468502
   0.0004864702   -0.0001339301   -0.0048318402
  -0.0000342898   -0.0000446901   -0.0045646802
   0.0000409902   -0.0000599101   -0.0045142502
  -0.0001540498   -0.0015677001   -0.0000932802
  -0.0001573498   -0.0012607401   -0.0001989902
   0.0000029602   -0.0010298801    0.0002721498
  -0.0002963398   -0.0013616501   -0.0000114402
  -0.0001791498   -0.0011887701    0.0003125098
  -0.0001275698   -0.0011910701    0.0002764398
  -0.0001965398   -0.0012932201    0.0002470398
  -0.0001325198   -0.0012708201    0.0002632798
  -0.0004594698    0.0018482899   -0.0005398502
  -0.0003253498    0.0018014899   -0.0000103902
  -0.0002090598    0.0018723999    0.0000217298
  -0.0002512098    0.0018769699    0.0000574498
  -0.0003458598    0.0016777499    0.0003765898
  -0.0003340798    0.0016713899    0.0003149898
  -0.0003432298    0.0016486099    0.0002908798
  -0.0003681098    0.0016288299    0.0002995298
   0.0003401502    0.0013720199   -0.0003670802
   0.0003722002    0.0013236599   -0.0001860402
   0.0000362502    0.0011099999   -0.0003658602
   0.0002038802    0.0012926899   -0.0002280602
   0.0003481902    0.0015685399    0.0001008298
   0.0001890802    0.0013935199   -0.0000211602
   0.0001871502    0.0012934699   -0.0001158502
   0.0001225102    0.0012549899   -0.0001333202
  -0.0000811098   -0.0020648601   -0.0004105302
   0.0003120402   -0.0017347201   -0.0003155602
   0.0004297702   -0.0013529401   -0.0003731302
   0.0003671302   -0.0016610301   -0.0002757902
   0.0003954102   -0.0016438401   -0.0001460602
   0.0003636002   -0.0016777601   -0.0001583102
   0.0001737202   -0.0020435801    0.0000382598
   0.0002531302   -0.0018441801   -0.0000765502
  -0.0087452498    0.0053786799    0.0055224898
  -0.0090361698    0.0056013699    0.0057071298
  -0.0086451398    0.0052817999    0.0054850098
  -0.0090188398    0.0054795099    0.0056122198
  -0.0091777898    0.0053881899    0.0056385398
  -0.0083887798    0.0052051799    0.0052339098
  -0.0087958498    0.0054997499    0.0054317598
  -0.0087245598    0.0054004299    0.0054429498
   0.0086726602   -0.0051673801    0.0057266398
   0.0084347902   -0.0050983701    0.0055124498
   0.0085862802   -0.0052168301    0.0056565198
   0.0084255202   -0.0050980501    0.0055031798
   0.0090871802   -0.0053748801    0.0060637598
   0.0082840502   -0.0050762101    0.0053703398
   0.0084083102   -0.0051288801    0.0054578098
   0.0084198402   -0.0050703601    0.0054213198
   0.0087843602   -0.0051977901   -0.0055454102
   0.0086574202   -0.0053148801   -0.0054403202
   0.0090083102   -0.0057270801   -0.0058227202
   0.0091035802   -0.0055588901   -0.0057077702
   0.0087201402   -0.0053962101   -0.0053196602
   0.0087022902   -0.0053709701   -0.0053835302
   0.0087323102   -0.0053624601   -0.0053510202
   0.0086966302   -0.0053538501   -0.0053961302
  -0.0089884498    0.0053534799   -0.0059243802
  -0.0083017498    0.0050942299   -0.0055134602
  -0.0086765098    0.0052747899   -0.0057562702
  -0.0083380798    0.0050434999   -0.0054664702
  -0.0083433998    0.0050997799   -0.0053547502
  -0.0084276098    0.0050838499   -0.0053735502
  -0.0083598998    0.0050753799   -0.0053864802
  -0.0084024298    0.0050861799   -0.0053989902

1    
  0.0200000000000000   0.0000000000000000   0.0000000000000000
  -0.0034220599   -0.0002372199   -0.0138789704
   0.0007308701   -0.0000302799   -0.0138588804
  -0.0004073899    0.0000081201   -0.0138582504
   0.0003975901    0.0000120401   -0.0138591404
  -0.0000367199    0.0000388801   -0.0137890004
   0.0000355801   -0.0000335099   -0.0139855304
   0.0000349001   -0.0000347399   -0.0137370504
  -0.0000358299    0.0000380001   -0.0139327704
   0.0004358501   -0.0000656799    0.0147460896
   0.0004361301   -0.0000637199    0.0129793896
  -0.0000178799   -0.0000265299    0.0140394996
  -0.0000163699   -0.0000270199    0.0136803796
  -0.0004192899    0.0000074201    0.0138711096
   0.0002742901    0.0000135701    0.0138353096
  -0.0004187799    0.0000063701    0.0138497396
   0.0002734801    0.0000132501    0.0138828596
   0.0008075601   -0.0007051999    0.0048658596
   0.0007642501    0.0012045801    0.0050649596
   0.0007692601    0.0012151101    0.0040106896
   0.0008066601   -0.0006956499    0.0042085596
   0.0000515801   -0.0000185599    0.0045400096
  -0.0000663299    0.0000615301    0.0045399996
  -0.0000524999   -0.0000378399    0.0045390496
   0.0000339901   -0.0000197399    0.0045387296
  -0.0005849099   -0.0003227799   -0.0046413204
   0.0002306901    0.0000380601   -0.0044781704
  -0.0005800399   -0.0003202299   -0.0044411804
   0.0002316501    0.0000346701   -0.0046006804
   0.0005417001   -0.0002406799   -0.0040521404
   0.0005421001   -0.0002401599   -0.0050265604
   0.0000270501    0.0000056301   -0.0044362104
   0.0000285301    0.0000049701   -0.0046380704
  -0.0004511099   -0.0013567199    0.0000456596
  -0.0000236199   -0.0016637699   -0.0001557204
  -0.0003578799   -0.0015822699   -0.0000160404
  -0.0000412799   -0.0010313899    0.0002904096
  -0.0001648299   -0.0012912799    0.0001545396
  -0.0001828199   -0.0012857099    0.0001759796
  -0.0001193099   -0.0012749199    0.0002083196
  -0.0002022399   -0.0012703699    0.0001515896
  -0.0001576599    0.0013356101    0.0005565596
  -0.0006195999    0.0016151801    0.0003365796
  -0.0002088799    0.0019439201    0.0000909096
  -0.0005261599    0.0013935701    0.0003973896
  -0.0002877599    0.0017003301    0.0001750596
  -0.0003708899    0.0017046901    0.0002318496
  -0.0003331199    0.0016840201    0.0002286896
  -0.0003513399    0.0016893501    0.0002076596
   0.0006663001    0.0015090301   -0.0000729304
  -0.0000604699    0.0012020801   -0.0002153904
   0.0003358301    0.0013589801   -0.0000246504
   0.0000912801    0.0012693301   -0.0001966404
   0.0000439901    0.0011144301   -0.0002962404
   0.0002762201    0.0014653501   -0.0000354404
   0.0001300201    0.0012454901   -0.0001985304
   0.0002152801    0.0013085301   -0.0001488004
   0.0008380901   -0.0014744899   -0.0003005304
   0.0001075301   -0.0017734799   -0.0001684804
   0.0005050201   -0.0016155899   -0.0003593504
   0.0002589501   -0.0017061499   -0.0001864004
   0.0003839601   -0.0016661599   -0.0002334804
   0.0002990101   -0.0017292299   -0.0001835604
   0.0004451401   -0.0015097199   -0.0003469504
   0.0002125601   -0.0018601999   -0.0000860304
  -0.0087842399    0.0054133201    0.0054380696
  -0.0087780299    0.0054070601    0.0055263196
  -0.0088794499    0.0054759301    0.0054615796
  -0.0085158299    0.0052451001    0.0054406796
  -0.0088852699    0.0054826001    0.0058328696
  -0.0089826999    0.0054687801    0.0055274596
  -0.0087180399    0.0053924401    0.0055183496
  -0.0087907499    0.0053815601    0.0054379696
   0.0086524001   -0.0052330299    0.0054960896
   0.0082869001   -0.0050012299    0.0054745196
   0.0083885201   -0.0050719599    0.0054101896
   0.0083805801   -0.0050635499    0.0054967096
   0.0082727801   -0.0049952999    0.0050964296
   0.0081822101   -0.0050077099    0.0054085396
   0.0084463801   -0.0050842099    0.0054169596
   0.0083729401   -0.0050942999    0.0054963696
   0.0090408201   -0.0056380199   -0.0056330304
   0.0084594601   -0.0052239199   -0.0053017404
   0.0085936001   -0.0051305599   -0.0052803004
   0.0083590201   -0.0052489499   -0.0053073204
   0.0088072801   -0.0053972199   -0.0055578804
   0.0086985301   -0.0053956699   -0.0053843104
   0.0087601501   -0.0053573799   -0.0054899504
   0.0087390701   -0.0053842899   -0.0054315404
  -0.0085610799    0.0053373601   -0.0056584804
  -0.0088050499    0.0052277301   -0.0056273504
  -0.0081230799    0.0048379901   -0.0053010004
  -0.0087045699    0.0052525901   -0.0056320104
  -0.0084674899    0.0050817201   -0.0055516604
  -0.0083592799    0.0050800501   -0.0053779304
  -0.0084262499    0.0050925101   -0.0055036804
  -0.0084053599    0.0051194501   -0.0054452504

17   
  0.0074985587831579   0.0073976341109208   0.0170013712898833
   0.0003250093   -0.0006438297   -0.0145472898
   0.0011890893    0.0007897103   -0.0144593198
   0.0002894893    0.0003399303   -0.0141684998
  -0.0002377307    0.0002495303   -0.0143906098
   0.0000126493    0.0000273603   -0.0137372198
  -0.0000013207    0.0000012903   -0.0136540798
  -0.0000333007   -0.0000346697   -0.0136904398
   0.0000062793    0.0000163403   -0.0136349398
  -0.0004256807    0.0009612303    0.0150657402
   0.0001520793    0.0000762803    0.0138845902
  -0.0002560907   -0.0001282497    0.0138619102
   0.0000478193   -0.0000613997    0.0138297602
   0.0005249493    0.0000155803    0.0145454102
  -0.0003009407   -0.0000901297    0.0141769402
   0.0000971693    0.0000153203    0.0138769802
  -0.0000737407    0.0000705903    0.0138519502
  -0.0065272707   -0.0058828897   -0.0088890498
   0.0001902493   -0.0000613897    0.0044225702
  -0.0000277707    0.0002284603    0.0044160302
   0.0001395393    0.0001289603    0.0043446602
   0.0001103493    0.0000446303    0.0047142802
  -0.0000905807    0.0000684903    0.0046740302
   0.0000018593   -0.0000726897    0.0046538802
  -0.0000375407   -0.0000411997    0.0046115202
  -0.0001705807    0.0000055403   -0.0046163098
   0.0000861293    0.0001953403   -0.0044195398
  -0.0001664907   -0.0002451897   -0.0044046998
   0.0006203693   -0.0001867297   -0.0040319898
   0.0001681593   -0.0001044297   -0.0045414298
  -0.0001473607   -0.0002474197   -0.0043114798
   0.0000207593    0.0000795103   -0.0045261598
  -0.0002750207    0.0004516103   -0.0040687998
   0.0024487393    0.0032051803    0.0040605202
  -0.0002121507   -0.0012973897    0.0002604002
  -0.0002100107   -0.0013447497    0.0002006302
  -0.0001899707   -0.0012923297    0.0001928702
  -0.0002019607   -0.0013812997    0.0000144302
  -0.0001734807   -0.0013429897    0.0000777502
  -0.0001766507   -0.0012771097    0.0001282002
  -0.0001420807   -0.0012677297    0.0001406502
  -0.0002116507    0.0014659603    0.0003618702
  -0.0006130807    0.0014235803    0.0001796202
   0.0000473193    0.0017077403    0.0015882602
  -0.0003672907    0.0016941903    0.0002930802
  -0.0003500607    0.0017881303    0.0000838502
  -0.0003131407    0.0017510103    0.0001421902
  -0.0003492607    0.0017098903    0.0001541102
  -0.0003088807    0.0017087303    0.0001541302
   0.0001255393    0.0014118103    0.0000697302
   0.0000319093    0.0010102203   -0.0002890698
   0.0002002493    0.0013515003   -0.0000917698
  -0.0000327507    0.0016293303   -0.0002921198
   0.0002151393    0.0013211903   -0.0001908798
   0.0001880993    0.0013050703   -0.0002932698
   0.0001572493    0.0012316403   -0.0002229198
   0.0000823093    0.0010869103   -0.0003166998
   0.0007524193   -0.0016251097   -0.0002558798
   0.0000174593   -0.0017716297   -0.0003228698
   0.0003590293   -0.0017209297   -0.0001769698
   0.0003252793   -0.0017749597   -0.0000856298
   0.0002361393   -0.0017755097   -0.0002590198
   0.0003977693   -0.0016115097   -0.0003683998
   0.0003158893   -0.0016892897   -0.0002421998
   0.0003801393   -0.0016137997   -0.0002942198
  -0.0086675207    0.0053128203    0.0054198202
  -0.0087136107    0.0053867103    0.0054211602
  -0.0088152807    0.0054332503    0.0052549902
  -0.0086830707    0.0053692803    0.0053907702
  -0.0087477907    0.0055223803    0.0053874802
  -0.0089152207    0.0053793603    0.0056790602
  -0.0087118407    0.0050100003    0.0050632302
  -0.0087215707    0.0053558503    0.0054649402
   0.0086279993   -0.0053029997    0.0054661402
   0.0083733393   -0.0050942897    0.0054198102
   0.0083857293   -0.0050485397    0.0054569802
   0.0082097493   -0.0049956097    0.0053313702
   0.0082804893   -0.0050139497    0.0054140102
   0.0085585493   -0.0049437197    0.0055128402
   0.0084144793   -0.0050970297    0.0054993702
   0.0085597093   -0.0052628997    0.0055248102
   0.0085725193   -0.0053762597   -0.0053762498
   0.0067972993   -0.0037303697   -0.0022268698
   0.0085711693   -0.0052398597   -0.0054376498
   0.0088229893   -0.0054623097   -0.0054105798
   0.0088794193   -0.0053866697   -0.0056207998
   0.0087422693   -0.0053971497   -0.0055182598
   0.0087628093   -0.0053903197   -0.0054935598
   0.0087524093   -0.0053654097   -0.0055085798
  -0.0040022807    0.0036467303   -0.0009014598
  -0.0084569307    0.0052310803   -0.0054291398
  -0.0083398107    0.0050204003   -0.0053771898
  -0.0083578807    0.0050415403   -0.0054560898
  -0.0085442707    0.0050932103   -0.0056365698
  -0.0084065707    0.0050715103   -0.0055135998
  -0.0084390807    0.0051472103   -0.0055264198
  -0.0084269807    0.0051048103   -0.0055125398

17   
 -0.0074985587831579  -0.0073976341109208  -0.0170013712898833
  -0.0003265202    0.0006448102   -0.0131791401
  -0.0011805502   -0.0007761698   -0.0132712401
  -0.0002888802   -0.0003325298   -0.0135454001
   0.0002293198   -0.0002388698   -0.0133365901
  -0.0000168702   -0.0000220998   -0.0139843101
  -0.0000016502    0.0000042102   -0.0140686901
   0.0000292798    0.0000383402   -0.0140296701
  -0.0000089702   -0.0000133398   -0.0140873301
   0.0004233898   -0.0009502398    0.0126713899
  -0.0001472002   -0.0000801398    0.0138363099
   0.0002515298    0.0001271702    0.0138513699
  -0.0000427702    0.0000566802    0.0138898599
  -0.0005268802   -0.0000164598    0.0131732999
   0.0003032298    0.0000842602    0.0135557999
  -0.0000949702   -0.0000213598    0.0138469999
   0.0000779198   -0.0000750998    0.0138725099
   0.0064390698    0.0054089802    0.0178910999
  -0.0001988902    0.0000568602    0.0046542699
   0.0000206298   -0.0002293198    0.0046630799
  -0.0001470602   -0.0001309798    0.0047319299
  -0.0001194902   -0.0000487198    0.0043649699
   0.0000836498   -0.0000711798    0.0044053499
  -0.0000107902    0.0000686302    0.0044245099
   0.0000301798    0.0000355902    0.0044671299
   0.0001782098    0.0000001002   -0.0044645801
  -0.0000787302   -0.0001883898   -0.0046588601
   0.0001747498    0.0002423502   -0.0046757901
  -0.0006040702    0.0001892902   -0.0050418801
  -0.0001603002    0.0001062402   -0.0045372401
   0.0001541398    0.0002521502   -0.0047647101
  -0.0000140602   -0.0000749498   -0.0045506201
   0.0002947498   -0.0004537798   -0.0050155901
  -0.0026375002   -0.0054867098   -0.0035627101
  -0.0001249002   -0.0012582698    0.0000803499
  -0.0001273402   -0.0012139698    0.0001385199
  -0.0001477502   -0.0012639898    0.0001474799
  -0.0001349902   -0.0011746698    0.0003267099
  -0.0001634002   -0.0012149498    0.0002604699
  -0.0001597702   -0.0012784198    0.0002119399
  -0.0001940202   -0.0012873698    0.0001999699
  -0.0004607502    0.0019262402    0.0000650099
  -0.0000629002    0.0019680602    0.0002454299
  -0.0007179302    0.0016978302   -0.0011585001
  -0.0003064202    0.0017000202    0.0001327199
  -0.0003234102    0.0016050202    0.0003427099
  -0.0003612202    0.0016437602    0.0002817799
  -0.0003239402    0.0016847702    0.0002709499
  -0.0003651102    0.0016851602    0.0002717999
   0.0002106898    0.0011451902   -0.0004081201
   0.0003034398    0.0015428602   -0.0000521101
   0.0001337498    0.0012049702   -0.0002464401
   0.0003661298    0.0009345902   -0.0000497601
   0.0001242198    0.0012370002   -0.0001491201
   0.0001483698    0.0012495402   -0.0000473201
   0.0001796198    0.0013241102   -0.0001174101
   0.0002556198    0.0014720602   -0.0000217801
  -0.0000709602   -0.0017663698   -0.0001710301
   0.0006527898   -0.0016232598   -0.0001033501
   0.0003131898   -0.0016759598   -0.0002471201
   0.0003480198   -0.0016197498   -0.0003381201
   0.0004381798   -0.0016176998   -0.0001662801
   0.0002737698   -0.0017849298   -0.0000555301
   0.0003578598   -0.0017040298   -0.0001835401
   0.0002936998   -0.0017794798   -0.0001317701
  -0.0088285802    0.0054474702    0.0055024099
  -0.0087853902    0.0053759902    0.0055013199
  -0.0086849502    0.0053298402    0.0056653099
  -0.0088159302    0.0053937202    0.0055317799
  -0.0087499302    0.0052414502    0.0055331199
  -0.0085845702    0.0053832602    0.0052443699
  -0.0087872802    0.0057644802    0.0058715899
  -0.0087751102    0.0054055602    0.0054558599
   0.0082066098   -0.0048906298    0.0054823499
   0.0084591998   -0.0050974998    0.0055287699
   0.0084459698   -0.0051417198    0.0054924499
   0.0086205298   -0.0051948698    0.0056157999
   0.0085511698   -0.0051777698    0.0055334199
   0.0082727798   -0.0052470898    0.0054355199
   0.0084168398   -0.0050943398    0.0054479899
   0.0082689598   -0.0049269098    0.0054205199
   0.0089258198   -0.0053860998   -0.0055467501
   0.0107767398   -0.0070261798   -0.0087082301
   0.0089263498   -0.0055217198   -0.0054850901
   0.0086763198   -0.0053006898   -0.0055118401
   0.0086201398   -0.0053758798   -0.0053025101
   0.0087563698   -0.0053656398   -0.0054043701
   0.0087347698   -0.0053723098   -0.0054277501
   0.0087463198   -0.0053970798   -0.0054138101
  -0.0129827402    0.0066811902   -0.0101298201
  -0.0083732002    0.0049610802   -0.0055182701
  -0.0084917202    0.0051708702   -0.0055716501
  -0.0084728902    0.0051488102   -0.0054922201
  -0.0082882302    0.0050976102   -0.0053126501
  -0.0084255802    0.0051199802   -0.0054348101
  -0.0083915202    0.0050445002   -0.0054206901
  -0.0084056902    0.0050872202   -0.0054361801

17   
  0.0200000000000000   0.0000000000000000   0.0000000000000000
   0.0008072100   -0.0011722802   -0.0142538096
   0.0007667600    0.0007745098   -0.0140054996
   0.0007694800    0.0007679098   -0.0137137096
   0.0008119500   -0.0011844502   -0.0134674396
   0.0000542100    0.0000182798   -0.0138591596
  -0.0000642300    0.0000423698   -0.0138594996
  -0.0000498100   -0.0000500702   -0.0138592796
   0.0000357600    0.0000110098   -0.0138590496
  -0.0005799500    0.0003341498    0.0143875704
   0.0002259300    0.0000015098    0.0138715604
  -0.0005835100    0.0003365298    0.0133273604
   0.0002268300   -0.0000009702    0.0138472204
   0.0005391700    0.0002046498    0.0147538704
   0.0005396300    0.0002041798    0.0129618204
   0.0000256400   -0.0000215702    0.0139045904
   0.0000253600   -0.0000213902    0.0138157304
  -0.0186084200    0.0013327598    0.0047133404
   0.0005449100   -0.0000352002    0.0045370804
  -0.0001227200    0.0000568998    0.0045367804
   0.0003597800    0.0000136298    0.0045369204
   0.0000562800    0.0000470398    0.0046273804
  -0.0000609700   -0.0000537002    0.0044871604
  -0.0000615600   -0.0000547602    0.0045938604
   0.0000573400    0.0000468698    0.0044536704
  -0.0001002500   -0.0000159002   -0.0046882096
  -0.0001006900   -0.0000165902   -0.0043874896
   0.0004853000    0.0001066998   -0.0049961496
   0.0004865900    0.0001143198   -0.0040757896
   0.0002279800    0.0000192298   -0.0044521696
  -0.0005321500   -0.0000414202   -0.0044619396
   0.0002294600    0.0000181798   -0.0046259096
  -0.0005312900   -0.0000425502   -0.0046184696
   0.0020560200    0.0003195798    0.0012013904
  -0.0003299200   -0.0013977902    0.0001561304
  -0.0000030100   -0.0013333802    0.0000978104
  -0.0003183800   -0.0014058302    0.0001997504
  -0.0001382700   -0.0013792902    0.0000373404
  -0.0001966000   -0.0011772502    0.0002915704
  -0.0001596000   -0.0012594702    0.0001688804
  -0.0001622400   -0.0012664002    0.0001893104
  -0.0001735500    0.0016417498    0.0002850704
  -0.0004862000    0.0015696898    0.0001840504
   0.0018626200    0.0032278298   -0.0007864396
  -0.0004996500    0.0015771198    0.0002266304
  -0.0003644000    0.0017987898    0.0000910404
  -0.0003064300    0.0015965298    0.0003457204
  -0.0003301200    0.0017096498    0.0001934604
  -0.0003281700    0.0017157098    0.0002142004
   0.0001176600    0.0014666998    0.0000907804
   0.0001480000    0.0011688398   -0.0002387896
  -0.0000284100    0.0011688898   -0.0001385496
   0.0000777700    0.0014872698   -0.0006603396
  -0.0000218100    0.0011057298   -0.0001481596
   0.0002544500    0.0013747198   -0.0002640796
   0.0001512700    0.0012629698   -0.0001757596
   0.0001785700    0.0012657898   -0.0001724596
   0.0002501700   -0.0014908302    0.0002666404
   0.0001405600   -0.0018077002   -0.0002433896
   0.0003161000   -0.0018071202   -0.0001436896
   0.0002866700   -0.0015072402   -0.0004745796
   0.0001459400   -0.0018702602   -0.0002337296
   0.0004220600   -0.0016013702   -0.0001177996
   0.0003191600   -0.0017125002   -0.0002062296
   0.0003463900   -0.0017106002   -0.0002094396
  -0.0085648800    0.0052219098    0.0054255004
  -0.0087902600    0.0054180098    0.0054916904
  -0.0087166100    0.0053714098    0.0053071304
  -0.0089409800    0.0054629198    0.0055652904
  -0.0086030500    0.0054862698    0.0052449104
  -0.0088432400    0.0053947898    0.0055561904
  -0.0084114000    0.0051243898    0.0051760104
  -0.0089500400    0.0054681998    0.0055804304
   0.0085992600   -0.0052541602    0.0055107404
   0.0083752900   -0.0050589802    0.0054442804
   0.0084464700   -0.0051040302    0.0056283604
   0.0082231700   -0.0050139602    0.0053701704
   0.0082155200   -0.0050088102    0.0053545904
   0.0087542500   -0.0053559802    0.0057614004
   0.0083201200   -0.0050818002    0.0053762004
   0.0085616100   -0.0049892402    0.0056901304
   0.0084312100   -0.0053022702   -0.0053709796
   0.0146181300   -0.0078216102   -0.0092459296
   0.0084875100   -0.0051660002   -0.0054524496
   0.0088426600   -0.0054477702   -0.0054909196
   0.0087953500   -0.0053352902   -0.0054826996
   0.0087437800   -0.0054026002   -0.0054838596
   0.0086825800   -0.0053816802   -0.0053859396
   0.0087706100   -0.0053921402   -0.0054898996
  -0.0027518000    0.0027879598   -0.0018895696
  -0.0087341400    0.0051732398   -0.0055645896
  -0.0083215900    0.0050285598   -0.0054447196
  -0.0086771500    0.0053111198   -0.0054827396
  -0.0084821600    0.0050950798   -0.0055485796
  -0.0083948900    0.0050849998   -0.0054450196
  -0.0083699000    0.0051423698   -0.0054522796
  -0.0084221000    0.0050746998   -0.0054515396

33   
  0.0200000000000000   0.0000000000000000   0.0000000000000000
  -0.0002858701    0.0002524995   -0.0138647301
   0.0001756499    0.0000217395   -0.0139659701
  -0.0001931201   -0.0001527405   -0.0139141101
   0.0001263999   -0.0001248105   -0.0137123401
   0.0000014299    0.0000226595   -0.0138592101
  -0.0000169801    0.0000047495   -0.0139049501
   0.0000468699    0.0000021995   -0.0138506601
  -0.0000360201   -0.0000138005   -0.0138829701
   0.0005023799   -0.0001751205    0.0135146599
  -0.0002296401   -0.0000141705    0.0137267499
   0.0001699599   -0.0001185805    0.0139966599
  -0.0000777601   -0.0000120405    0.0138588999
  -0.0001229901   -0.0000038605    0.0137081199
   0.0001100599    0.0000796895    0.0137554199
  -0.0000375001   -0.0000253305    0.0138666299
   0.0000486099   -0.0000661305    0.0139241499
   0.0022053899    0.0016882495    0.0057961399
  -0.0001696701    0.0000641095    0.0045317299
   0.0001622299   -0.0000555505    0.0044399499
  -0.0001561301   -0.0002498805    0.0046882599
   0.0000261799   -0.0000452205    0.0045049899
  -0.0000330701    0.0000018295    0.0045443099
   0.0000042299    0.0000171495    0.0045172099
   0.0000019399    0.0000096595    0.0045617999
  -0.0000481201   -0.0000189505   -0.0045562401
  -0.0000168601   -0.0001295405   -0.0046327601
  -0.0001936401   -0.0001818105   -0.0043337201
  -0.0000825701    0.0003798895   -0.0049018401
  -0.0001888401    0.0001200995   -0.0044530901
   0.0000905699    0.0000260495   -0.0045646401
  -0.0000152201   -0.0000229305   -0.0045338801
   0.0000146099   -0.0000658205   -0.0046155801
  -0.0041287201   -0.0034750405   -0.0007321101
  -0.0000873401   -0.0012598405    0.0001661999
  -0.0001688201   -0.0012145705    0.0001772999
  -0.0000908601   -0.0011789105    0.0001945199
  -0.0001690401   -0.0012594605    0.0001974899
  -0.0001724101   -0.0012646505    0.0001904299