phonopy:
  version: 2.11.0
  calculator: qe
  frequency_unit_conversion_factor: 108.970772
  symmetry_tolerance: 1.00000e-05
  configuration:
    dim: "2 2 2"
    primitive_axis: "AUTO"
    mp: "32 32 32"
    cell_filename: "BiVO4.in"
    calculator: "qe"
    tprop: ".true."

physical_unit:
  atomic_mass: "AMU"
  length: "au"
  force_constants: "Ry/au^2"

space_group:
  type: "C2/c"
  number: 15
  Hall_symbol: "-C 2yc"

primitive_matrix:
- [  0.000000000000000, -1.000000000000000,  0.000000000000000 ]
- [  0.000000000000000, -1.000000000000000,  1.000000000000000 ]
- [ -1.000000000000000,  1.000000000000000,  0.000000000000000 ]

supercell_matrix:
- [   2,   0,   0 ]
- [   0,   2,   0 ]
- [   0,   0,   2 ]

primitive_cell:
  lattice:
  - [    -4.874663450392590,    -4.809054334664665,   -11.052252256725820 ] # a
  - [    -4.874663450392590,    -4.809054334664663,    11.052252256725820 ] # b
  - [    -0.064965769214821,     9.618108669329327,     0.000000000000000 ] # c
  points:
  - symbol: Bi # 1
    coordinates: [  0.366500000000000,  0.633500000000000,  0.250000000000000 ]
    mass: 208.980400
  - symbol: Bi # 2
    coordinates: [  0.633500000000000,  0.366500000000000,  0.750000000000000 ]
    mass: 208.980400
  - symbol: V  # 3
    coordinates: [  0.870000000000000,  0.130000000000000,  0.250000000000000 ]
    mass: 50.941500
  - symbol: V  # 4
    coordinates: [  0.130000000000000,  0.870000000000000,  0.750000000000000 ]
    mass: 50.941500
  - symbol: O  # 5
    coordinates: [  0.645300000000000,  0.061700000000000,  0.361200000000000 ]
    mass: 15.999400
  - symbol: O  # 6
    coordinates: [  0.938300000000000,  0.354700000000000,  0.138800000000000 ]
    mass: 15.999400
  - symbol: O  # 7
    coordinates: [  0.354700000000000,  0.938300000000000,  0.638800000000000 ]
    mass: 15.999400
  - symbol: O  # 8
    coordinates: [  0.061700000000000,  0.645300000000000,  0.861200000000000 ]
    mass: 15.999400
  - symbol: O  # 9
    coordinates: [  0.290100000000000,  0.188700000000000,  0.120400000000000 ]
    mass: 15.999400
  - symbol: O  # 10
    coordinates: [  0.811300000000000,  0.709900000000000,  0.379600000000000 ]
    mass: 15.999400
  - symbol: O  # 11
    coordinates: [  0.709900000000000,  0.811300000000000,  0.879600000000000 ]
    mass: 15.999400
  - symbol: O  # 12
    coordinates: [  0.188700000000000,  0.290100000000000,  0.620400000000000 ]
    mass: 15.999400
  reciprocal_lattice: # without 2pi
  - [    -0.101892213083961,    -0.000688233646300,    -0.045239647846051 ] # a*
  - [    -0.101892213083961,    -0.000688233646300,     0.045239647846051 ] # b*
  - [    -0.101892213083961,     0.103282311330890,    -0.000000000000000 ] # c*

unit_cell:
  lattice:
  - [     9.814292670000000,     0.000000000000000,     0.000000000000000 ] # a
  - [    -0.064965769214821,     9.618108669329329,     0.000000000000000 ] # b
  - [     4.874663450392590,     4.809054334664665,    11.052252256725820 ] # c
  points:
  - symbol: Bi # 1
    coordinates: [  0.366500000000000,  0.616500000000000,  0.267000000000000 ]
    mass: 208.980400
    reduced_to: 1
  - symbol: Bi # 2
    coordinates: [  0.633500000000000,  0.383500000000000,  0.733000000000000 ]
    mass: 208.980400
    reduced_to: 2
  - symbol: V  # 3
    coordinates: [  0.870000000000000,  0.120000000000000,  0.260000000000000 ]
    mass: 50.941500
    reduced_to: 3
  - symbol: V  # 4
    coordinates: [  0.130000000000000,  0.880000000000000,  0.740000000000000 ]
    mass: 50.941500
    reduced_to: 4
  - symbol: O  # 5
    coordinates: [  0.938300000000000,  0.299500000000000,  0.416400000000000 ]
    mass: 15.999400
    reduced_to: 5
  - symbol: O  # 6
    coordinates: [  0.645300000000000,  0.784100000000000,  0.416400000000000 ]
    mass: 15.999400
    reduced_to: 6
  - symbol: O  # 7
    coordinates: [  0.061700000000000,  0.700500000000000,  0.583600000000000 ]
    mass: 15.999400
    reduced_to: 7
  - symbol: O  # 8
    coordinates: [  0.354700000000000,  0.215900000000000,  0.583600000000000 ]
    mass: 15.999400
    reduced_to: 8
  - symbol: O  # 9
    coordinates: [  0.811300000000000,  0.931700000000000,  0.898600000000000 ]
    mass: 15.999400
    reduced_to: 9
  - symbol: O  # 10
    coordinates: [  0.290100000000000,  0.669700000000000,  0.898600000000000 ]
    mass: 15.999400
    reduced_to: 10
  - symbol: O  # 11
    coordinates: [  0.188700000000000,  0.068300000000000,  0.101400000000000 ]
    mass: 15.999400
    reduced_to: 11
  - symbol: O  # 12
    coordinates: [  0.709900000000000,  0.330300000000000,  0.101400000000000 ]
    mass: 15.999400
    reduced_to: 12

supercell:
  lattice:
  - [    19.628585340000001,     0.000000000000000,     0.000000000000000 ] # a
  - [    -0.129931538429642,    19.236217338658658,     0.000000000000000 ] # b
  - [     9.749326900785180,     9.618108669329329,    22.104504513451641 ] # c
  points:
  - symbol: Bi # 1
    coordinates: [  0.183250000000000,  0.308250000000000,  0.133500000000000 ]
    mass: 208.980400
    reduced_to: 1
  - symbol: Bi # 2
    coordinates: [  0.683250000000000,  0.308250000000000,  0.133500000000000 ]
    mass: 208.980400
    reduced_to: 1
  - symbol: Bi # 3
    coordinates: [  0.183250000000000,  0.808250000000000,  0.133500000000000 ]
    mass: 208.980400
    reduced_to: 1
  - symbol: Bi # 4
    coordinates: [  0.683250000000000,  0.808250000000000,  0.133500000000000 ]
    mass: 208.980400
    reduced_to: 1
  - symbol: Bi # 5
    coordinates: [  0.183250000000000,  0.308250000000000,  0.633500000000000 ]
    mass: 208.980400
    reduced_to: 1
  - symbol: Bi # 6
    coordinates: [  0.683250000000000,  0.308250000000000,  0.633500000000000 ]
    mass: 208.980400
    reduced_to: 1
  - symbol: Bi # 7
    coordinates: [  0.183250000000000,  0.808250000000000,  0.633500000000000 ]
    mass: 208.980400
    reduced_to: 1
  - symbol: Bi # 8
    coordinates: [  0.683250000000000,  0.808250000000000,  0.633500000000000 ]
    mass: 208.980400
    reduced_to: 1
  - symbol: Bi # 9
    coordinates: [  0.316750000000000,  0.191750000000000,  0.366500000000000 ]
    mass: 208.980400
    reduced_to: 9
  - symbol: Bi # 10
    coordinates: [  0.816750000000000,  0.191750000000000,  0.366500000000000 ]
    mass: 208.980400
    reduced_to: 9
  - symbol: Bi # 11
    coordinates: [  0.316750000000000,  0.691750000000000,  0.366500000000000 ]
    mass: 208.980400
    reduced_to: 9
  - symbol: Bi # 12
    coordinates: [  0.816750000000000,  0.691750000000000,  0.366500000000000 ]
    mass: 208.980400
    reduced_to: 9
  - symbol: Bi # 13
    coordinates: [  0.316750000000000,  0.191750000000000,  0.866500000000000 ]
    mass: 208.980400
    reduced_to: 9
  - symbol: Bi # 14
    coordinates: [  0.816750000000000,  0.191750000000000,  0.866500000000000 ]
    mass: 208.980400
    reduced_to: 9
  - symbol: Bi # 15
    coordinates: [  0.316750000000000,  0.691750000000000,  0.866500000000000 ]
    mass: 208.980400
    reduced_to: 9
  - symbol: Bi # 16
    coordinates: [  0.816750000000000,  0.691750000000000,  0.866500000000000 ]
    mass: 208.980400
    reduced_to: 9
  - symbol: V  # 17
    coordinates: [  0.435000000000000,  0.060000000000000,  0.130000000000000 ]
    mass: 50.941500
    reduced_to: 17
  - symbol: V  # 18
    coordinates: [  0.935000000000000,  0.060000000000000,  0.130000000000000 ]
    mass: 50.941500
    reduced_to: 17
  - symbol: V  # 19
    coordinates: [  0.435000000000000,  0.560000000000000,  0.130000000000000 ]
    mass: 50.941500
    reduced_to: 17
  - symbol: V  # 20
    coordinates: [  0.935000000000000,  0.560000000000000,  0.130000000000000 ]
    mass: 50.941500
    reduced_to: 17
  - symbol: V  # 21
    coordinates: [  0.435000000000000,  0.060000000000000,  0.630000000000000 ]
    mass: 50.941500
    reduced_to: 17
  - symbol: V  # 22
    coordinates: [  0.935000000000000,  0.060000000000000,  0.630000000000000 ]
    mass: 50.941500
    reduced_to: 17
  - symbol: V  # 23
    coordinates: [  0.435000000000000,  0.560000000000000,  0.630000000000000 ]
    mass: 50.941500
    reduced_to: 17
  - symbol: V  # 24
    coordinates: [  0.935000000000000,  0.560000000000000,  0.630000000000000 ]
    mass: 50.941500
    reduced_to: 17
  - symbol: V  # 25
    coordinates: [  0.065000000000000,  0.440000000000000,  0.370000000000000 ]
    mass: 50.941500
    reduced_to: 25
  - symbol: V  # 26
    coordinates: [  0.565000000000000,  0.440000000000000,  0.370000000000000 ]
    mass: 50.941500
    reduced_to: 25
  - symbol: V  # 27
    coordinates: [  0.065000000000000,  0.940000000000000,  0.370000000000000 ]
    mass: 50.941500
    reduced_to: 25
  - symbol: V  # 28
    coordinates: [  0.565000000000000,  0.940000000000000,  0.370000000000000 ]
    mass: 50.941500
    reduced_to: 25
  - symbol: V  # 29
    coordinates: [  0.065000000000000,  0.440000000000000,  0.870000000000000 ]
    mass: 50.941500
    reduced_to: 25
  - symbol: V  # 30
    coordinates: [  0.565000000000000,  0.440000000000000,  0.870000000000000 ]
    mass: 50.941500
    reduced_to: 25
  - symbol: V  # 31
    coordinates: [  0.065000000000000,  0.940000000000000,  0.870000000000000 ]
    mass: 50.941500
    reduced_to: 25
  - symbol: V  # 32
    coordinates: [  0.565000000000000,  0.940000000000000,  0.870000000000000 ]
    mass: 50.941500
    reduced_to: 25
  - symbol: O  # 33
    coordinates: [  0.469150000000000,  0.149750000000000,  0.208200000000000 ]
    mass: 15.999400
    reduced_to: 33
  - symbol: O  # 34
    coordinates: [  0.969150000000000,  0.149750000000000,  0.208200000000000 ]
    mass: 15.999400
    reduced_to: 33
  - symbol: O  # 35
    coordinates: [  0.469150000000000,  0.649750000000000,  0.208200000000000 ]
    mass: 15.999400
    reduced_to: 33
  - symbol: O  # 36
    coordinates: [  0.969150000000000,  0.649750000000000,  0.208200000000000 ]
    mass: 15.999400
    reduced_to: 33
  - symbol: O  # 37
    coordinates: [  0.469150000000000,  0.149750000000000,  0.708200000000000 ]
    mass: 15.999400
    reduced_to: 33
  - symbol: O  # 38
    coordinates: [  0.969150000000000,  0.149750000000000,  0.708200000000000 ]
    mass: 15.999400
    reduced_to: 33
  - symbol: O  # 39
    coordinates: [  0.469150000000000,  0.649750000000000,  0.708200000000000 ]
    mass: 15.999400
    reduced_to: 33
  - symbol: O  # 40
    coordinates: [  0.969150000000000,  0.649750000000000,  0.708200000000000 ]
    mass: 15.999400
    reduced_to: 33
  - symbol: O  # 41
    coordinates: [  0.322650000000000,  0.392050000000000,  0.208200000000000 ]
    mass: 15.999400
    reduced_to: 41
  - symbol: O  # 42
    coordinates: [  0.822650000000000,  0.392050000000000,  0.208200000000000 ]
    mass: 15.999400
    reduced_to: 41
  - symbol: O  # 43
    coordinates: [  0.322650000000000,  0.892050000000000,  0.208200000000000 ]
    mass: 15.999400
    reduced_to: 41
  - symbol: O  # 44
    coordinates: [  0.822650000000000,  0.892050000000000,  0.208200000000000 ]
    mass: 15.999400
    reduced_to: 41
  - symbol: O  # 45
    coordinates: [  0.322650000000000,  0.392050000000000,  0.708200000000000 ]
    mass: 15.999400
    reduced_to: 41
  - symbol: O  # 46
    coordinates: [  0.822650000000000,  0.392050000000000,  0.708200000000000 ]
    mass: 15.999400
    reduced_to: 41
  - symbol: O  # 47
    coordinates: [  0.322650000000000,  0.892050000000000,  0.708200000000000 ]
    mass: 15.999400
    reduced_to: 41
  - symbol: O  # 48
    coordinates: [  0.822650000000000,  0.892050000000000,  0.708200000000000 ]
    mass: 15.999400
    reduced_to: 41
  - symbol: O  # 49
    coordinates: [  0.030850000000000,  0.350250000000000,  0.291800000000000 ]
    mass: 15.999400
    reduced_to: 49
  - symbol: O  # 50
    coordinates: [  0.530850000000000,  0.350250000000000,  0.291800000000000 ]
    mass: 15.999400
    reduced_to: 49
  - symbol: O  # 51
    coordinates: [  0.030850000000000,  0.850250000000000,  0.291800000000000 ]
    mass: 15.999400
    reduced_to: 49
  - symbol: O  # 52
    coordinates: [  0.530850000000000,  0.850250000000000,  0.291800000000000 ]
    mass: 15.999400
    reduced_to: 49
  - symbol: O  # 53
    coordinates: [  0.030850000000000,  0.350250000000000,  0.791800000000000 ]
    mass: 15.999400
    reduced_to: 49
  - symbol: O  # 54
    coordinates: [  0.530850000000000,  0.350250000000000,  0.791800000000000 ]
    mass: 15.999400
    reduced_to: 49
  - symbol: O  # 55
    coordinates: [  0.030850000000000,  0.850250000000000,  0.791800000000000 ]
    mass: 15.999400
    reduced_to: 49
  - symbol: O  # 56
    coordinates: [  0.530850000000000,  0.850250000000000,  0.791800000000000 ]
    mass: 15.999400
    reduced_to: 49
  - symbol: O  # 57
    coordinates: [  0.177350000000000,  0.107950000000000,  0.291800000000000 ]
    mass: 15.999400
    reduced_to: 57
  - symbol: O  # 58
    coordinates: [  0.677350000000000,  0.107950000000000,  0.291800000000000 ]
    mass: 15.999400
    reduced_to: 57
  - symbol: O  # 59
    coordinates: [  0.177350000000000,  0.607950000000000,  0.291800000000000 ]
    mass: 15.999400
    reduced_to: 57
  - symbol: O  # 60
    coordinates: [  0.677350000000000,  0.607950000000000,  0.291800000000000 ]
    mass: 15.999400
    reduced_to: 57
  - symbol: O  # 61
    coordinates: [  0.177350000000000,  0.107950000000000,  0.791800000000000 ]
    mass: 15.999400
    reduced_to: 57
  - symbol: O  # 62
    coordinates: [  0.677350000000000,  0.107950000000000,  0.791800000000000 ]
    mass: 15.999400
    reduced_to: 57
  - symbol: O  # 63
    coordinates: [  0.177350000000000,  0.607950000000000,  0.791800000000000 ]
    mass: 15.999400
    reduced_to: 57
  - symbol: O  # 64
    coordinates: [  0.677350000000000,  0.607950000000000,  0.791800000000000 ]
    mass: 15.999400
    reduced_to: 57
  - symbol: O  # 65
    coordinates: [  0.405650000000000,  0.465850000000000,  0.449300000000000 ]
    mass: 15.999400
    reduced_to: 65
  - symbol: O  # 66
    coordinates: [  0.905650000000000,  0.465850000000000,  0.449300000000000 ]
    mass: 15.999400
    reduced_to: 65
  - symbol: O  # 67
    coordinates: [  0.405650000000000,  0.965850000000000,  0.449300000000000 ]
    mass: 15.999400
    reduced_to: 65
  - symbol: O  # 68
    coordinates: [  0.905650000000000,  0.965850000000000,  0.449300000000000 ]
    mass: 15.999400
    reduced_to: 65
  - symbol: O  # 69
    coordinates: [  0.405650000000000,  0.465850000000000,  0.949300000000000 ]
    mass: 15.999400
    reduced_to: 65
  - symbol: O  # 70
    coordinates: [  0.905650000000000,  0.465850000000000,  0.949300000000000 ]
    mass: 15.999400
    reduced_to: 65
  - symbol: O  # 71
    coordinates: [  0.405650000000000,  0.965850000000000,  0.949300000000000 ]
    mass: 15.999400
    reduced_to: 65
  - symbol: O  # 72
    coordinates: [  0.905650000000000,  0.965850000000000,  0.949300000000000 ]
    mass: 15.999400
    reduced_to: 65
  - symbol: O  # 73
    coordinates: [  0.145050000000000,  0.334850000000000,  0.449300000000000 ]
    mass: 15.999400
    reduced_to: 73
  - symbol: O  # 74
    coordinates: [  0.645050000000000,  0.334850000000000,  0.449300000000000 ]
    mass: 15.999400
    reduced_to: 73
  - symbol: O  # 75
    coordinates: [  0.145050000000000,  0.834850000000000,  0.449300000000000 ]
    mass: 15.999400
    reduced_to: 73
  - symbol: O  # 76
    coordinates: [  0.645050000000000,  0.834850000000000,  0.449300000000000 ]
    mass: 15.999400
    reduced_to: 73
  - symbol: O  # 77
    coordinates: [  0.145050000000000,  0.334850000000000,  0.949300000000000 ]
    mass: 15.999400
    reduced_to: 73
  - symbol: O  # 78
    coordinates: [  0.645050000000000,  0.334850000000000,  0.949300000000000 ]
    mass: 15.999400
    reduced_to: 73
  - symbol: O  # 79
    coordinates: [  0.145050000000000,  0.834850000000000,  0.949300000000000 ]
    mass: 15.999400
    reduced_to: 73
  - symbol: O  # 80
    coordinates: [  0.645050000000000,  0.834850000000000,  0.949300000000000 ]
    mass: 15.999400
    reduced_to: 73
  - symbol: O  # 81
    coordinates: [  0.094350000000000,  0.034150000000000,  0.050700000000000 ]
    mass: 15.999400
    reduced_to: 81
  - symbol: O  # 82
    coordinates: [  0.594350000000000,  0.034150000000000,  0.050700000000000 ]
    mass: 15.999400
    reduced_to: 81
  - symbol: O  # 83
    coordinates: [  0.094350000000000,  0.534150000000000,  0.050700000000000 ]
    mass: 15.999400
    reduced_to: 81
  - symbol: O  # 84
    coordinates: [  0.594350000000000,  0.534150000000000,  0.050700000000000 ]
    mass: 15.999400
    reduced_to: 81
  - symbol: O  # 85
    coordinates: [  0.094350000000000,  0.034150000000000,  0.550700000000000 ]
    mass: 15.999400
    reduced_to: 81
  - symbol: O  # 86
    coordinates: [  0.594350000000000,  0.034150000000000,  0.550700000000000 ]
    mass: 15.999400
    reduced_to: 81
  - symbol: O  # 87
    coordinates: [  0.094350000000000,  0.534150000000000,  0.550700000000000 ]
    mass: 15.999400
    reduced_to: 81
  - symbol: O  # 88
    coordinates: [  0.594350000000000,  0.534150000000000,  0.550700000000000 ]
    mass: 15.999400
    reduced_to: 81
  - symbol: O  # 89
    coordinates: [  0.354950000000000,  0.165150000000000,  0.050700000000000 ]
    mass: 15.999400
    reduced_to: 89
  - symbol: O  # 90
    coordinates: [  0.854950000000000,  0.165150000000000,  0.050700000000000 ]
    mass: 15.999400
    reduced_to: 89
  - symbol: O  # 91
    coordinates: [  0.354950000000000,  0.665150000000000,  0.050700000000000 ]
    mass: 15.999400
    reduced_to: 89
  - symbol: O  # 92
    coordinates: [  0.854950000000000,  0.665150000000000,  0.050700000000000 ]
    mass: 15.999400
    reduced_to: 89
  - symbol: O  # 93
    coordinates: [  0.354950000000000,  0.165150000000000,  0.550700000000000 ]
    mass: 15.999400
    reduced_to: 89
  - symbol: O  # 94
    coordinates: [  0.854950000000000,  0.165150000000000,  0.550700000000000 ]
    mass: 15.999400
    reduced_to: 89
  - symbol: O  # 95
    coordinates: [  0.354950000000000,  0.665150000000000,  0.550700000000000 ]
    mass: 15.999400
    reduced_to: 89
  - symbol: O  # 96
    coordinates: [  0.854950000000000,  0.665150000000000,  0.550700000000000 ]
    mass: 15.999400
    reduced_to: 89
