
     Program PWSCF v.6.2 (svn rev. 13949:13950) starts on 27Oct2021 at 18:16:28 

     This program is part of the open-source Quantum ESPRESSO suite
     for quantum simulation of materials; please cite
         "P. Giannozzi et al., J. Phys.:Condens. Matter 21 395502 (2009);
         "P. Giannozzi et al., J. Phys.:Condens. Matter 29 465901 (2017);
          URL http://www.quantum-espresso.org", 
     in publications or presentations arising from this work. More details at
     http://www.quantum-espresso.org/quote

     Parallel version (MPI), running on     4 processors

     MPI processes distributed on     1 nodes
     R & G space division:  proc/nbgrp/npool/nimage =       4
     Reading input from headeradd_supercell-003.in

     Current dimensions of program PWSCF are:
     Max number of different atomic species (ntypx) = 10
     Max number of k-points (npk) =  40000
     Max angular momentum in pseudopotentials (lmaxx) =  3
     Message from routine iosys:
     minimal I/O required, wf_collect reset to FALSE
               file Bi.pbe-dn-rrkjus_psl.1.0.0.UPF: wavefunction(s)  5D renormalized
               file O.pbe-rrkjus.UPF: wavefunction(s)  2S renormalized

     Subspace diagonalization in iterative solution of the eigenvalue problem:
     a serial algorithm will be used


     Parallelization info
     --------------------
     sticks:   dense  smooth     PW     G-vecs:    dense   smooth      PW
     Min        2104    2104    550               165101   165101   22036
     Max        2105    2105    551               165102   165102   22038
     Sum        8417    8417   2201               660405   660405   88147



     bravais-lattice index     =            0
     lattice parameter (alat)  =      19.6286  a.u.
     unit-cell volume          =    8346.2129 (a.u.)^3
     number of atoms/cell      =           96
     number of atomic types    =            3
     number of electrons       =       704.00
     number of Kohn-Sham states=          352
     kinetic-energy cutoff     =      70.0000  Ry
     charge density cutoff     =     280.0000  Ry
     convergence threshold     =      1.0E-09
     mixing beta               =       0.7000
     number of iterations used =            8  plain     mixing
     Exchange-correlation      =  SLA  PW   PBE  PBE ( 1  4  3  4 0 0)

     celldm(1)=  19.628585  celldm(2)=   0.000000  celldm(3)=   0.000000
     celldm(4)=   0.000000  celldm(5)=   0.000000  celldm(6)=   0.000000

     crystal axes: (cart. coord. in units of alat)
               a(1) = (   1.000000   0.000000   0.000000 )  
               a(2) = (  -0.006620   0.980010   0.000000 )  
               a(3) = (   0.496690   0.490005   1.126138 )  

     reciprocal axes: (cart. coord. in units 2 pi/alat)
               b(1) = (  1.000000  0.006755 -0.443995 )  
               b(2) = (  0.000000  1.020397 -0.443995 )  
               b(3) = (  0.000000 -0.000000  0.887990 )  


     PseudoPot. # 1 for Bi read from file:
     /home/uezono/pseudo/Bi.pbe-dn-rrkjus_psl.1.0.0.UPF
     MD5 check sum: f9abe7488ae443f53c935a63d0032572
     Pseudo is Ultrasoft + core correction, Zval = 15.0
     Generated using "atomic" code by A. Dal Corso  v.6.2.2
     Using radial grid of 1283 points,  6 beta functions with: 
                l(1) =   0
                l(2) =   0
                l(3) =   1
                l(4) =   1
                l(5) =   2
                l(6) =   2
     Q(r) pseudized with 0 coefficients 


     PseudoPot. # 2 for V  read from file:
     /home/uezono/pseudo/V.pbe-n-van.UPF
     MD5 check sum: ff5646be6093ca757d9525862f4bfff1
     Pseudo is Ultrasoft + core correction, Zval =  5.0
     Generated by new atomic code, or converted to UPF format
     Using radial grid of  853 points,  6 beta functions with: 
                l(1) =   0
                l(2) =   0
                l(3) =   1
                l(4) =   1
                l(5) =   2
                l(6) =   2
     Q(r) pseudized with  8 coefficients,  rinner =    1.000   1.000   1.000
                                                       1.000   1.000

     PseudoPot. # 3 for O  read from file:
     /home/uezono/pseudo/O.pbe-rrkjus.UPF
     MD5 check sum: fadcf19ee70a498d3030e2e79cf929a4
     Pseudo is Ultrasoft, Zval =  6.0
     Generated by new atomic code, or converted to UPF format
     Using radial grid of 1269 points,  4 beta functions with: 
                l(1) =   0
                l(2) =   0
                l(3) =   1
                l(4) =   1
     Q(r) pseudized with 0 coefficients 


     atomic species   valence    mass     pseudopotential
        Bi            15.00   208.98040     Bi( 1.00)
        V              5.00    50.94150     V ( 1.00)
        O              6.00    15.99940     O ( 1.00)

     No symmetry found



   Cartesian axes

     site n.     atom                  positions (alat units)
         1           Bi  tau(   1) = (   0.2485366   0.3675039   0.1503395  )
         2           Bi  tau(   2) = (   0.7475177   0.3675039   0.1503395  )
         3           Bi  tau(   3) = (   0.2442079   0.8575091   0.1503395  )
         4           Bi  tau(   4) = (   0.7442079   0.8575091   0.1503395  )
         5           Bi  tau(   5) = (   0.4958628   0.6125065   0.7134087  )
         6           Bi  tau(   6) = (   0.9958628   0.6125065   0.7134087  )
         7           Bi  tau(   7) = (   0.4925531   1.1025117   0.7134087  )
         8           Bi  tau(   8) = (   0.9925531   1.1025117   0.7134087  )
         9           Bi  tau(   9) = (   0.4975177   0.3675039   0.4127297  )
        10           Bi  tau(  10) = (   0.9975177   0.3675039   0.4127297  )
        11           Bi  tau(  11) = (   0.4942079   0.8575091   0.4127297  )
        12           Bi  tau(  12) = (   0.9942079   0.8575091   0.4127297  )
        13           Bi  tau(  13) = (   0.7458628   0.6125065   0.9757990  )
        14           Bi  tau(  14) = (   1.2458628   0.6125065   0.9757990  )
        15           Bi  tau(  15) = (   0.7425531   1.1025117   0.9757990  )
        16           Bi  tau(  16) = (   1.2425531   1.1025117   0.9757990  )
        17           V   tau(  17) = (   0.4991726   0.1225013   0.1463980  )
        18           V   tau(  18) = (   0.9991726   0.1225013   0.1463980  )
        19           V   tau(  19) = (   0.4958628   0.6125065   0.1463980  )
        20           V   tau(  20) = (   0.9958628   0.6125065   0.1463980  )
        21           V   tau(  21) = (   0.7475177   0.3675039   0.7094672  )
        22           V   tau(  22) = (   1.2475177   0.3675039   0.7094672  )
        23           V   tau(  23) = (   0.7442079   0.8575091   0.7094672  )
        24           V   tau(  24) = (   1.2442079   0.8575091   0.7094672  )
        25           V   tau(  25) = (   0.2458628   0.6125065   0.4166712  )
        26           V   tau(  26) = (   0.7458628   0.6125065   0.4166712  )
        27           V   tau(  27) = (   0.2425531   1.1025117   0.4166712  )
        28           V   tau(  28) = (   0.7425531   1.1025117   0.4166712  )
        29           V   tau(  29) = (   0.4942079   0.8575091   0.9797404  )
        30           V   tau(  30) = (   0.9942079   0.8575091   0.9797404  )
        31           V   tau(  31) = (   0.4908982   1.3475143   0.9797404  )
        32           V   tau(  32) = (   0.9908982   1.3475143   0.9797404  )
        33           O   tau(  33) = (   0.5715696   0.2487756   0.2344620  )
        34           O   tau(  34) = (   1.0715696   0.2487756   0.2344620  )
        35           O   tau(  35) = (   0.5682599   0.7387808   0.2344620  )
        36           O   tau(  36) = (   1.0682599   0.7387808   0.2344620  )
        37           O   tau(  37) = (   0.8199148   0.4937782   0.7975312  )
        38           O   tau(  38) = (   1.3199148   0.4937782   0.7975312  )
        39           O   tau(  39) = (   0.8166050   0.9837834   0.7975312  )
        40           O   tau(  40) = (   1.3166050   0.9837834   0.7975312  )
        41           O   tau(  41) = (   0.4234657   0.4862321   0.2344620  )
        42           O   tau(  42) = (   0.9234657   0.4862321   0.2344620  )
        43           O   tau(  43) = (   0.4201560   0.9762373   0.2344620  )
        44           O   tau(  44) = (   0.9201560   0.9762373   0.2344620  )
        45           O   tau(  45) = (   0.6718109   0.7312347   0.7975312  )
        46           O   tau(  46) = (   1.1718109   0.7312347   0.7975312  )
        47           O   tau(  47) = (   0.6685011   1.2212399   0.7975312  )
        48           O   tau(  48) = (   1.1685011   1.2212399   0.7975312  )
        49           O   tau(  49) = (   0.1734657   0.4862321   0.3286072  )
        50           O   tau(  50) = (   0.6734657   0.4862321   0.3286072  )
        51           O   tau(  51) = (   0.1701560   0.9762373   0.3286072  )
        52           O   tau(  52) = (   0.6701560   0.9762373   0.3286072  )
        53           O   tau(  53) = (   0.4218109   0.7312347   0.8916764  )
        54           O   tau(  54) = (   0.9218109   0.7312347   0.8916764  )
        55           O   tau(  55) = (   0.4185011   1.2212399   0.8916764  )
        56           O   tau(  56) = (   0.9185011   1.2212399   0.8916764  )
        57           O   tau(  57) = (   0.3215696   0.2487756   0.3286072  )
        58           O   tau(  58) = (   0.8215696   0.2487756   0.3286072  )
        59           O   tau(  59) = (   0.3182599   0.7387808   0.3286072  )
        60           O   tau(  60) = (   0.8182599   0.7387808   0.3286072  )
        61           O   tau(  61) = (   0.5699148   0.4937782   0.8916764  )
        62           O   tau(  62) = (   1.0699148   0.4937782   0.8916764  )
        63           O   tau(  63) = (   0.5666050   0.9837834   0.8916764  )
        64           O   tau(  64) = (   1.0666050   0.9837834   0.8916764  )
        65           O   tau(  65) = (   0.6257292   0.6766972   0.5059740  )
        66           O   tau(  66) = (   1.1257292   0.6766972   0.5059740  )
        67           O   tau(  67) = (   0.6224195   1.1667024   0.5059740  )
        68           O   tau(  68) = (   1.1224195   1.1667024   0.5059740  )
        69           O   tau(  69) = (   0.8740744   0.9216998   1.0690432  )
        70           O   tau(  70) = (   1.3740744   0.9216998   1.0690432  )
        71           O   tau(  71) = (   0.8707646   1.4117049   1.0690432  )
        72           O   tau(  72) = (   1.3707646   1.4117049   1.0690432  )
        73           O   tau(  73) = (   0.3659964   0.5483158   0.5059740  )
        74           O   tau(  74) = (   0.8659964   0.5483158   0.5059740  )
        75           O   tau(  75) = (   0.3626866   1.0383210   0.5059740  )
        76           O   tau(  76) = (   0.8626866   1.0383210   0.5059740  )
        77           O   tau(  77) = (   0.6143415   0.7933184   1.0690432  )
        78           O   tau(  78) = (   1.1143415   0.7933184   1.0690432  )
        79           O   tau(  79) = (   0.6110318   1.2833236   1.0690432  )
        80           O   tau(  80) = (   1.1110318   1.2833236   1.0690432  )
        81           O   tau(  81) = (   0.1193061   0.0583106   0.0570952  )
        82           O   tau(  82) = (   0.6193061   0.0583106   0.0570952  )
        83           O   tau(  83) = (   0.1159964   0.5483158   0.0570952  )
        84           O   tau(  84) = (   0.6159964   0.5483158   0.0570952  )
        85           O   tau(  85) = (   0.3676513   0.3033132   0.6201644  )
        86           O   tau(  86) = (   0.8676513   0.3033132   0.6201644  )
        87           O   tau(  87) = (   0.3643415   0.7933184   0.6201644  )
        88           O   tau(  88) = (   0.8643415   0.7933184   0.6201644  )
        89           O   tau(  89) = (   0.3790390   0.1866920   0.0570952  )
        90           O   tau(  90) = (   0.8790390   0.1866920   0.0570952  )
        91           O   tau(  91) = (   0.3757292   0.6766972   0.0570952  )
        92           O   tau(  92) = (   0.8757292   0.6766972   0.0570952  )
        93           O   tau(  93) = (   0.6273841   0.4316946   0.6201644  )
        94           O   tau(  94) = (   1.1273841   0.4316946   0.6201644  )
        95           O   tau(  95) = (   0.6240744   0.9216998   0.6201644  )
        96           O   tau(  96) = (   1.1240744   0.9216998   0.6201644  )

     number of k points=     4
                       cart. coord. in units 2pi/alat
        k(    1) = (   0.2500000   0.2567880   0.0000000), wk =   0.5000000
        k(    2) = (   0.2500000   0.2567880  -0.4439951), wk =   0.5000000
        k(    3) = (   0.2500000  -0.2534107   0.2219976), wk =   0.5000000
        k(    4) = (  -0.2500000   0.2534107   0.2219976), wk =   0.5000000

     Dense  grid:   660405 G-vectors     FFT dimensions: ( 108, 108, 144)

     Estimated max dynamical RAM per process >       2.39 GB

     Estimated total dynamical RAM >       9.55 GB

     Initial potential from superposition of free atoms

     starting charge  703.96725, renormalised to  704.00000
     Starting wfc are  544 randomized atomic wfcs

     total cpu time spent up to now is      110.1 secs

     Self-consistent Calculation

     iteration #  1     ecut=    70.00 Ry     beta= 0.70
     Davidson diagonalization with overlap
     ethr =  1.00E-02,  avg # of iterations =  1.0

     total cpu time spent up to now is      270.1 secs

     total energy              =   -4949.30909393 Ry
     Harris-Foulkes estimate   =   -4981.29959845 Ry
     estimated scf accuracy    <      40.94412756 Ry

     iteration #  2     ecut=    70.00 Ry     beta= 0.70
     Davidson diagonalization with overlap
     ethr =  5.82E-03,  avg # of iterations =  4.0

     total cpu time spent up to now is      563.7 secs

     total energy              =   -4901.63269695 Ry
     Harris-Foulkes estimate   =   -5036.17650278 Ry
     estimated scf accuracy    <     570.82823954 Ry

     iteration #  3     ecut=    70.00 Ry     beta= 0.70
     Davidson diagonalization with overlap
     ethr =  5.82E-03,  avg # of iterations =  6.2

     total cpu time spent up to now is      868.8 secs

     total energy              =   -4970.00371332 Ry
     Harris-Foulkes estimate   =   -4977.38337034 Ry
     estimated scf accuracy    <      23.90527152 Ry

     iteration #  4     ecut=    70.00 Ry     beta= 0.70
     Davidson diagonalization with overlap
     ethr =  3.40E-03,  avg # of iterations =  2.0

     total cpu time spent up to now is     1066.6 secs

     total energy              =   -4972.11222572 Ry
     Harris-Foulkes estimate   =   -4972.74533080 Ry
     estimated scf accuracy    <       4.39512455 Ry

     iteration #  5     ecut=    70.00 Ry     beta= 0.70
     Davidson diagonalization with overlap
     ethr =  6.24E-04,  avg # of iterations =  2.0

     total cpu time spent up to now is     1231.6 secs

     total energy              =   -4971.78676525 Ry
     Harris-Foulkes estimate   =   -4972.31564420 Ry
     estimated scf accuracy    <       2.09616550 Ry

     iteration #  6     ecut=    70.00 Ry     beta= 0.70
     Davidson diagonalization with overlap
     ethr =  2.98E-04,  avg # of iterations =  3.0

     total cpu time spent up to now is     1437.5 secs

     total energy              =   -4972.08014059 Ry
     Harris-Foulkes estimate   =   -4972.11920602 Ry
     estimated scf accuracy    <       0.06889326 Ry

     iteration #  7     ecut=    70.00 Ry     beta= 0.70
     Davidson diagonalization with overlap
     ethr =  9.79E-06,  avg # of iterations =  4.0

     total cpu time spent up to now is     1698.4 secs

     total energy              =   -4972.08512969 Ry
     Harris-Foulkes estimate   =   -4972.12873931 Ry
     estimated scf accuracy    <       0.11858657 Ry

     iteration #  8     ecut=    70.00 Ry     beta= 0.70
     Davidson diagonalization with overlap
     ethr =  9.79E-06,  avg # of iterations =  3.0

     total cpu time spent up to now is     1939.1 secs

     total energy              =   -4972.10510172 Ry
     Harris-Foulkes estimate   =   -4972.11474544 Ry
     estimated scf accuracy    <       0.04017533 Ry

     iteration #  9     ecut=    70.00 Ry     beta= 0.70
     Davidson diagonalization with overlap
     ethr =  5.71E-06,  avg # of iterations =  3.0

     total cpu time spent up to now is     2166.8 secs

     total energy              =   -4972.10855598 Ry
     Harris-Foulkes estimate   =   -4972.11379515 Ry
     estimated scf accuracy    <       0.02927951 Ry

     iteration # 10     ecut=    70.00 Ry     beta= 0.70
     Davidson diagonalization with overlap
     ethr =  4.16E-06,  avg # of iterations =  2.0

     total cpu time spent up to now is     2333.8 secs

     total energy              =   -4972.10775496 Ry
     Harris-Foulkes estimate   =   -4972.11023887 Ry
     estimated scf accuracy    <       0.00901767 Ry

     iteration # 11     ecut=    70.00 Ry     beta= 0.70
     Davidson diagonalization with overlap
     ethr =  1.28E-06,  avg # of iterations =  3.0

     total cpu time spent up to now is     2544.4 secs

     total energy              =   -4972.10926086 Ry
     Harris-Foulkes estimate   =   -4972.10940266 Ry
     estimated scf accuracy    <       0.00059530 Ry

     iteration # 12     ecut=    70.00 Ry     beta= 0.70
     Davidson diagonalization with overlap
     ethr =  8.46E-08,  avg # of iterations =  3.0

     total cpu time spent up to now is     2764.3 secs

     total energy              =   -4972.10930717 Ry
     Harris-Foulkes estimate   =   -4972.10938423 Ry
     estimated scf accuracy    <       0.00030302 Ry

     iteration # 13     ecut=    70.00 Ry     beta= 0.70
     Davidson diagonalization with overlap
     ethr =  4.30E-08,  avg # of iterations =  3.0

     total cpu time spent up to now is     2968.8 secs

     total energy              =   -4972.10932983 Ry
     Harris-Foulkes estimate   =   -4972.10934668 Ry
     estimated scf accuracy    <       0.00005847 Ry

     iteration # 14     ecut=    70.00 Ry     beta= 0.70
     Davidson diagonalization with overlap
     ethr =  8.31E-09,  avg # of iterations =  3.0

     total cpu time spent up to now is     3187.0 secs

     total energy              =   -4972.10933770 Ry
     Harris-Foulkes estimate   =   -4972.10934035 Ry
     estimated scf accuracy    <       0.00000752 Ry

     iteration # 15     ecut=    70.00 Ry     beta= 0.70
     Davidson diagonalization with overlap
     ethr =  1.07E-09,  avg # of iterations =  3.0

     total cpu time spent up to now is     3442.7 secs

     total energy              =   -4972.10933815 Ry
     Harris-Foulkes estimate   =   -4972.10934116 Ry
     estimated scf accuracy    <       0.00001084 Ry

     iteration # 16     ecut=    70.00 Ry     beta= 0.70
     Davidson diagonalization with overlap
     ethr =  1.07E-09,  avg # of iterations =  3.0

     total cpu time spent up to now is     3668.5 secs

     total energy              =   -4972.10933956 Ry
     Harris-Foulkes estimate   =   -4972.10933966 Ry
     estimated scf accuracy    <       0.00000030 Ry

     iteration # 17     ecut=    70.00 Ry     beta= 0.70
     Davidson diagonalization with overlap
     ethr =  4.24E-11,  avg # of iterations =  3.8

     total cpu time spent up to now is     3921.4 secs

     total energy              =   -4972.10933955 Ry
     Harris-Foulkes estimate   =   -4972.10933973 Ry
     estimated scf accuracy    <       0.00000076 Ry

     iteration # 18     ecut=    70.00 Ry     beta= 0.70
     Davidson diagonalization with overlap
     ethr =  4.24E-11,  avg # of iterations =  3.0

     total cpu time spent up to now is     4161.9 secs

     total energy              =   -4972.10933963 Ry
     Harris-Foulkes estimate   =   -4972.10933965 Ry
     estimated scf accuracy    <       0.00000005 Ry

     iteration # 19     ecut=    70.00 Ry     beta= 0.70
     Davidson diagonalization with overlap
     ethr =  6.49E-12,  avg # of iterations =  3.0

     total cpu time spent up to now is     4396.5 secs

     total energy              =   -4972.10933964 Ry
     Harris-Foulkes estimate   =   -4972.10933965 Ry
     estimated scf accuracy    <       0.00000003 Ry

     iteration # 20     ecut=    70.00 Ry     beta= 0.70
     Davidson diagonalization with overlap
     ethr =  4.44E-12,  avg # of iterations =  3.0

     total cpu time spent up to now is     4623.1 secs

     total energy              =   -4972.10933964 Ry
     Harris-Foulkes estimate   =   -4972.10933964 Ry
     estimated scf accuracy    <          8.5E-09 Ry

     iteration # 21     ecut=    70.00 Ry     beta= 0.70
     Davidson diagonalization with overlap
     ethr =  1.20E-12,  avg # of iterations =  3.0

     total cpu time spent up to now is     4852.3 secs

     total energy              =   -4972.10933964 Ry
     Harris-Foulkes estimate   =   -4972.10933964 Ry
     estimated scf accuracy    <          2.4E-09 Ry

     iteration # 22     ecut=    70.00 Ry     beta= 0.70
     Davidson diagonalization with overlap
     ethr =  3.40E-13,  avg # of iterations =  3.0

     total cpu time spent up to now is     5064.7 secs

     End of self-consistent calculation

          k = 0.2500 0.2568 0.0000 ( 82568 PWs)   bands (ev):

   -14.4879 -14.4868 -14.4863 -14.4853 -14.4835 -14.4831 -14.4827 -14.4820
   -14.4778 -14.4685 -14.4684 -14.4683 -14.4635 -14.4631 -14.4579 -14.4577
   -14.4516 -14.4514 -14.4484 -14.4366 -14.4335 -14.4309 -14.4308 -14.4254
   -14.4234 -14.4126 -14.4125 -14.4060 -14.4052 -14.4050 -14.4049 -14.4025
   -14.4024 -14.3986 -14.3981 -14.3977 -14.3970 -14.3970 -14.3952 -14.3947
   -14.3938 -14.3928 -14.3925 -14.3920 -14.3916 -14.3913 -14.3895 -14.3890
   -14.3876 -14.3859 -14.3839 -14.3836 -14.3811 -14.3810 -14.3797 -14.3795
   -14.3787 -14.3739 -14.3738 -14.3702 -14.3678 -14.3678 -14.3638 -14.3616
   -14.3601 -14.3593 -14.3592 -14.3580 -14.3565 -14.3531 -14.3523 -14.3513
   -14.3509 -14.3485 -14.3481 -14.3462 -14.3456 -14.3416 -14.3414 -14.3366
   -10.4960 -10.2964 -10.1664 -10.1660 -10.1202 -10.1200  -9.9301  -9.8057
    -9.6777  -9.6051  -9.6045  -9.5997  -9.5993  -9.5451  -9.4697  -9.3939
    -9.3597  -9.3216  -9.3207  -9.3139  -9.3027  -9.2799  -9.2797  -9.2525
    -9.2429  -9.1714  -9.1486  -9.1141  -9.1140  -9.0841  -9.0836  -9.0661
    -9.0635  -9.0425  -9.0402  -9.0393  -8.9746  -8.9736  -8.9534  -8.9453
    -8.9346  -8.9341  -8.9244  -8.8990  -8.8918  -8.8915  -8.8886  -8.8632
    -8.8267  -8.8256  -8.8234  -8.8212  -8.8201  -8.8049  -8.7847  -8.7837
    -8.7751  -8.7530  -8.7147  -8.7042  -8.7040  -8.6860  -8.6859  -8.6582
    -2.2087  -2.0740  -2.0740  -1.9657  -1.9018  -1.9015  -1.8935  -1.7949
    -1.5981  -1.5523  -1.5521  -1.5040  -1.4727  -1.3587  -1.3586  -1.3053
     2.4198   2.4643   2.4984   2.4992   2.5539   2.5549   2.6750   2.7349
     2.7359   2.7409   2.7505   2.7521   2.7646   2.7709   2.7755   2.8351
     2.8361   2.9409   2.9519   2.9755   2.9769   3.0042   3.1130   3.1806
     3.1808   3.2215   3.2514   3.2526   3.2810   3.3614   3.3863   3.3865
     3.4147   3.4217   3.4228   3.5344   3.5352   3.6268   3.6427   3.7114
     3.7118   3.7687   3.7764   3.7911   3.8969   3.8979   3.8984   3.9699
     3.9952   4.0187   4.0275   4.0421   4.0428   4.0437   4.0444   4.1462
     4.1865   4.2093   4.2093   4.2360   4.2397   4.2399   4.2452   4.2673
     4.2850   4.2859   4.3005   4.3516   4.3646   4.3698   4.3706   4.3762
     4.3823   4.3836   4.4051   4.4084   4.4418   4.4868   4.4930   4.4940
     4.5360   4.5378   4.6138   4.6343   4.6358   4.6443   4.6449   4.6732
     4.6734   4.6800   4.6965   4.7003   4.7136   4.7218   4.7669   4.7702
     4.7706   4.8415   4.8613   4.8617   4.9195   4.9341   5.0017   5.0078
     5.0081   5.0562   5.0565   5.0930   5.0936   5.1132   5.1231   5.1234
     5.1458   5.1461   5.2147   5.2737   5.2857   5.2873   5.2891   5.3620
     5.3686   5.3689   5.3940   5.3979   5.4239   5.5199   5.5210   5.5457
     5.6497   5.7459   5.7460   5.7518   5.8378   5.8538   5.8543   5.8702
     5.8909   5.9898   5.9930   5.9933   6.0038   6.0648   6.0652   6.1330
     6.1360   6.1557   6.2483   6.2714   6.2720   6.2746   6.2747   6.2750
     6.2851   6.2859   6.2957   6.4121   6.4130   6.4132   6.4195   6.4236
     6.4642   6.4651   6.4738   6.4746   6.4928   6.5825   6.5900   6.5902
     6.6963   6.6979   6.7261   6.7913   6.7920   6.7955   6.8123   6.8675
     6.8741   6.8787   6.8797   6.9327   6.9421   6.9472   6.9474   6.9905
     6.9908   7.0641   7.1488   7.2889   7.2892   7.3694   7.3695   7.4774

          k = 0.2500 0.2568-0.4440 ( 82488 PWs)   bands (ev):

   -14.4879 -14.4871 -14.4860 -14.4847 -14.4845 -14.4839 -14.4836 -14.4787
   -14.4750 -14.4734 -14.4732 -14.4610 -14.4570 -14.4569 -14.4567 -14.4562
   -14.4534 -14.4525 -14.4523 -14.4498 -14.4351 -14.4318 -14.4317 -14.4232
   -14.4204 -14.4161 -14.4159 -14.4140 -14.4080 -14.4056 -14.4037 -14.4035
   -14.4000 -14.3994 -14.3979 -14.3975 -14.3968 -14.3967 -14.3965 -14.3962
   -14.3933 -14.3927 -14.3922 -14.3918 -14.3903 -14.3889 -14.3886 -14.3850
   -14.3849 -14.3845 -14.3835 -14.3827 -14.3798 -14.3755 -14.3755 -14.3726
   -14.3714 -14.3709 -14.3708 -14.3707 -14.3705 -14.3692 -14.3688 -14.3679
   -14.3629 -14.3615 -14.3611 -14.3563 -14.3544 -14.3538 -14.3534 -14.3519
   -14.3511 -14.3492 -14.3491 -14.3483 -14.3475 -14.3415 -14.3413 -14.3361
   -10.4124 -10.4122 -10.2243 -10.1945 -10.0987 -10.0190  -9.8742  -9.8740
    -9.6768  -9.6004  -9.5595  -9.5148  -9.5087  -9.5084  -9.4909  -9.4905
    -9.4419  -9.4399  -9.3928  -9.3928  -9.2306  -9.2251  -9.2242  -9.1948
    -9.1943  -9.1698  -9.1696  -9.1520  -9.1417  -9.1384  -9.1236  -9.0860
    -9.0663  -9.0661  -9.0501  -8.9819  -8.9743  -8.9640  -8.9100  -8.9080
    -8.9001  -8.8995  -8.8948  -8.8889  -8.8882  -8.8805  -8.8755  -8.8752
    -8.8527  -8.8405  -8.8309  -8.8305  -8.8161  -8.8154  -8.8004  -8.7857
    -8.7852  -8.7642  -8.7192  -8.6975  -8.6937  -8.6861  -8.6848  -8.6793
    -2.1225  -2.0991  -2.0990  -2.0228  -1.9818  -1.8513  -1.8511  -1.7732
    -1.6575  -1.5441  -1.5439  -1.4958  -1.3900  -1.3772  -1.3771  -1.3305
     2.4966   2.4999   2.5653   2.5692   2.5696   2.5717   2.6232   2.6613
     2.6620   2.7254   2.7262   2.7517   2.7518   2.7767   2.8684   2.8693
     2.8700   2.8746   2.8782   2.8791   2.9146   3.0340   3.0925   3.1338
     3.1401   3.1402   3.2569   3.2598   3.2722   3.2856   3.2978   3.2984
     3.3721   3.4348   3.4611   3.4621   3.6029   3.6031   3.6715   3.7705
     3.7985   3.8284   3.9031   3.9033   3.9860   3.9863   4.0147   4.0360
     4.0472   4.0662   4.0839   4.0940   4.1176   4.1186   4.1496   4.1701
     4.1707   4.2037   4.2217   4.2228   4.2236   4.2368   4.2644   4.2851
     4.2853   4.2965   4.2980   4.2990   4.3192   4.3395   4.3397   4.3423
     4.4062   4.4313   4.4315   4.4340   4.4733   4.4736   4.4742   4.4786
     4.4815   4.4817   4.5266   4.5325   4.5517   4.5520   4.6017   4.6251
     4.6256   4.6412   4.6864   4.6865   4.7300   4.7921   4.8220   4.8233
     4.8320   4.8324   4.8644   4.8781   4.8788   4.8860   4.8862   4.8975
     4.8982   4.9909   5.0365   5.0368   5.0929   5.1060   5.1165   5.1531
     5.1652   5.1654   5.2045   5.2260   5.2458   5.2462   5.2549   5.2751
     5.3076   5.3363   5.3372   5.4454   5.4711   5.5704   5.5711   5.6568
     5.7133   5.7955   5.8001   5.8006   5.8117   5.8865   5.8871   5.9156
     5.9798   6.0126   6.0307   6.0309   6.0560   6.0662   6.0675   6.0682
     6.1156   6.1610   6.1697   6.1703   6.1877   6.2022   6.2023   6.2752
     6.3438   6.3551   6.3557   6.4020   6.4021   6.4096   6.4913   6.4919
     6.5014   6.5128   6.5235   6.5266   6.5771   6.5878   6.6172   6.6367
     6.6373   6.6576   6.6861   6.6862   6.7876   6.7884   6.8020   6.8021
     6.8250   6.8805   6.8811   6.9348   6.9355   6.9555   6.9556   6.9716
     7.0241   7.0310   7.0888   7.1805   7.3440   7.3442   7.4398   7.5545

          k = 0.2500-0.2534 0.2220 ( 82555 PWs)   bands (ev):

   -14.4882 -14.4866 -14.4861 -14.4855 -14.4850 -14.4846 -14.4830 -14.4779
   -14.4750 -14.4732 -14.4710 -14.4638 -14.4608 -14.4601 -14.4588 -14.4571
   -14.4543 -14.4510 -14.4477 -14.4428 -14.4355 -14.4311 -14.4287 -14.4260
   -14.4223 -14.4152 -14.4123 -14.4090 -14.4078 -14.4073 -14.4051 -14.4040
   -14.4000 -14.3984 -14.3978 -14.3971 -14.3968 -14.3965 -14.3957 -14.3942
   -14.3934 -14.3926 -14.3921 -14.3913 -14.3903 -14.3899 -14.3895 -14.3887
   -14.3870 -14.3849 -14.3844 -14.3836 -14.3828 -14.3794 -14.3763 -14.3746
   -14.3740 -14.3729 -14.3714 -14.3711 -14.3702 -14.3682 -14.3657 -14.3652
   -14.3619 -14.3610 -14.3572 -14.3566 -14.3561 -14.3551 -14.3526 -14.3514
   -14.3503 -14.3498 -14.3485 -14.3474 -14.3469 -14.3411 -14.3404 -14.3370
   -10.4780 -10.3428 -10.2012 -10.1569 -10.1064 -10.0290  -9.9443  -9.8711
    -9.6910  -9.6131  -9.6076  -9.5884  -9.5735  -9.4717  -9.4144  -9.4084
    -9.4066  -9.3902  -9.3831  -9.3602  -9.2473  -9.2338  -9.2226  -9.2015
    -9.1966  -9.1782  -9.1652  -9.1337  -9.1216  -9.1184  -9.1123  -9.1095
    -9.0626  -9.0579  -9.0566  -9.0243  -9.0207  -9.0101  -8.9375  -8.9355
    -8.9314  -8.9153  -8.9133  -8.8894  -8.8866  -8.8844  -8.8486  -8.8481
    -8.8425  -8.8389  -8.8079  -8.7968  -8.7942  -8.7844  -8.7834  -8.7715
    -8.7681  -8.7639  -8.7579  -8.7323  -8.7103  -8.7048  -8.6758  -8.6490
    -2.1762  -2.1134  -2.0312  -2.0121  -1.9598  -1.8804  -1.8251  -1.8185
    -1.6236  -1.5605  -1.5195  -1.5111  -1.4290  -1.3969  -1.3351  -1.3236
     2.4310   2.4817   2.5233   2.5564   2.5781   2.5807   2.5826   2.6379
     2.6906   2.7009   2.7260   2.7404   2.7826   2.7903   2.8060   2.8413
     2.8421   2.8595   3.0157   3.0338   3.0567   3.0829   3.1171   3.1272
     3.1424   3.1920   3.1943   3.2116   3.2343   3.2539   3.3121   3.3728
     3.5131   3.5265   3.5408   3.5500   3.5764   3.6009   3.6511   3.6567
     3.6877   3.6973   3.8616   3.8730   3.9125   3.9341   3.9450   3.9529
     3.9843   3.9865   4.0118   4.0482   4.0982   4.1148   4.1279   4.1408
     4.1485   4.1957   4.2022   4.2054   4.2118   4.2312   4.2336   4.2420
     4.2489   4.2531   4.2947   4.3075   4.3418   4.3550   4.3569   4.3837
     4.4237   4.4276   4.4332   4.4450   4.4536   4.4683   4.4963   4.5299
     4.5382   4.5401   4.5416   4.5647   4.5721   4.6682   4.6691   4.6827
     4.6887   4.7130   4.7349   4.7377   4.7497   4.7531   4.7569   4.7634
     4.7917   4.7983   4.8719   4.8757   4.8781   4.9039   4.9327   4.9656
     4.9769   4.9994   5.0320   5.0496   5.0939   5.0956   5.1239   5.1775
     5.1854   5.2025   5.2299   5.2566   5.2668   5.2689   5.2962   5.3007
     5.3748   5.3763   5.4497   5.4660   5.5040   5.5408   5.5445   5.6072
     5.6756   5.6880   5.6925   5.7131   5.7220   5.7489   5.8085   5.8542
     5.8897   5.9406   5.9610   5.9761   5.9887   6.0375   6.0483   6.1433
     6.1515   6.2007   6.2275   6.2532   6.2728   6.2746   6.2796   6.3117
     6.3351   6.3533   6.3585   6.3782   6.4240   6.4330   6.4341   6.4787
     6.4792   6.5016   6.5553   6.5675   6.6155   6.6217   6.6622   6.6649
     6.6907   6.6916   6.6940   6.7215   6.7269   6.7320   6.7475   6.7900
     6.8304   6.8699   6.8875   6.9215   6.9378   6.9423   6.9570   6.9796
     6.9816   7.0795   7.1200   7.2382   7.2884   7.3056   7.4634   7.4681

          k =-0.2500 0.2534 0.2220 ( 82555 PWs)   bands (ev):

   -14.4883 -14.4865 -14.4860 -14.4856 -14.4851 -14.4846 -14.4829 -14.4781
   -14.4749 -14.4732 -14.4709 -14.4637 -14.4606 -14.4599 -14.4589 -14.4571
   -14.4544 -14.4511 -14.4477 -14.4427 -14.4356 -14.4311 -14.4287 -14.4259
   -14.4222 -14.4153 -14.4123 -14.4089 -14.4078 -14.4073 -14.4051 -14.4041
   -14.4000 -14.3985 -14.3978 -14.3971 -14.3969 -14.3965 -14.3957 -14.3942
   -14.3934 -14.3926 -14.3922 -14.3913 -14.3903 -14.3898 -14.3895 -14.3887
   -14.3870 -14.3850 -14.3843 -14.3837 -14.3828 -14.3795 -14.3762 -14.3745
   -14.3740 -14.3729 -14.3714 -14.3710 -14.3701 -14.3681 -14.3656 -14.3652
   -14.3619 -14.3610 -14.3571 -14.3567 -14.3561 -14.3552 -14.3526 -14.3514
   -14.3502 -14.3499 -14.3485 -14.3474 -14.3468 -14.3411 -14.3404 -14.3370
   -10.4780 -10.3428 -10.2012 -10.1568 -10.1063 -10.0293  -9.9443  -9.8711
    -9.6903  -9.6132  -9.6078  -9.5888  -9.5734  -9.4718  -9.4148  -9.4083
    -9.4065  -9.3898  -9.3829  -9.3606  -9.2471  -9.2334  -9.2228  -9.2011
    -9.1967  -9.1782  -9.1661  -9.1337  -9.1211  -9.1187  -9.1118  -9.1089
    -9.0627  -9.0583  -9.0570  -9.0249  -9.0210  -9.0099  -8.9368  -8.9349
    -8.9314  -8.9154  -8.9128  -8.8897  -8.8869  -8.8845  -8.8489  -8.8480
    -8.8425  -8.8393  -8.8075  -8.7969  -8.7943  -8.7842  -8.7833  -8.7712
    -8.7685  -8.7640  -8.7580  -8.7321  -8.7102  -8.7050  -8.6757  -8.6490
    -2.1762  -2.1133  -2.0313  -2.0121  -1.9599  -1.8804  -1.8247  -1.8186
    -1.6240  -1.5605  -1.5195  -1.5109  -1.4290  -1.3968  -1.3351  -1.3236
     2.4309   2.4819   2.5238   2.5558   2.5773   2.5808   2.5820   2.6384
     2.6918   2.7003   2.7256   2.7415   2.7829   2.7904   2.8043   2.8416
     2.8420   2.8602   3.0159   3.0334   3.0565   3.0833   3.1174   3.1263
     3.1430   3.1917   3.1948   3.2119   3.2334   3.2547   3.3125   3.3722
     3.5130   3.5254   3.5412   3.5497   3.5758   3.6013   3.6514   3.6567
     3.6883   3.6970   3.8611   3.8737   3.9116   3.9333   3.9455   3.9527
     3.9849   3.9869   4.0116   4.0478   4.0982   4.1151   4.1283   4.1410
     4.1483   4.1952   4.2019   4.2054   4.2126   4.2318   4.2339   4.2421
     4.2496   4.2523   4.2937   4.3078   4.3408   4.3545   4.3574   4.3823
     4.4237   4.4271   4.4328   4.4445   4.4529   4.4689   4.4972   4.5295
     4.5388   4.5403   4.5427   4.5653   4.5735   4.6686   4.6691   4.6826
     4.6892   4.7124   4.7347   4.7387   4.7496   4.7539   4.7572   4.7637
     4.7918   4.7975   4.8716   4.8745   4.8775   4.9047   4.9325   4.9653
     4.9770   4.9992   5.0319   5.0503   5.0926   5.0952   5.1236   5.1781
     5.1852   5.2028   5.2303   5.2569   5.2664   5.2686   5.2963   5.3009
     5.3745   5.3764   5.4496   5.4662   5.5043   5.5400   5.5444   5.6074
     5.6767   5.6876   5.6928   5.7133   5.7217   5.7494   5.8082   5.8545
     5.8889   5.9407   5.9612   5.9761   5.9883   6.0379   6.0480   6.1436
     6.1514   6.1998   6.2279   6.2534   6.2732   6.2746   6.2802   6.3112
     6.3353   6.3533   6.3585   6.3779   6.4238   6.4333   6.4338   6.4787
     6.4794   6.5012   6.5545   6.5682   6.6149   6.6211   6.6622   6.6650
     6.6909   6.6918   6.6941   6.7219   6.7265   6.7320   6.7482   6.7902
     6.8306   6.8698   6.8878   6.9220   6.9378   6.9422   6.9565   6.9794
     6.9818   7.0795   7.1203   7.2381   7.2881   7.3053   7.4634   7.4683

     highest occupied level (ev):     7.5545

!    total energy              =   -4972.10933964 Ry
     Harris-Foulkes estimate   =   -4972.10933964 Ry
     estimated scf accuracy    <          4.8E-10 Ry

     The total energy is the sum of the following terms:

     one-electron contribution =   -1193.11310271 Ry
     hartree contribution      =    1074.13766553 Ry
     xc contribution           =   -1297.69971640 Ry
     ewald contribution        =   -3555.43418606 Ry

     convergence has been achieved in  22 iterations

     Forces acting on atoms (cartesian axes, Ry/au):

     atom    1 type  1   force =    -0.00342206   -0.00023722   -0.01387897
     atom    2 type  1   force =     0.00073087   -0.00003028   -0.01385888
     atom    3 type  1   force =    -0.00040739    0.00000812   -0.01385825
     atom    4 type  1   force =     0.00039759    0.00001204   -0.01385914
     atom    5 type  1   force =    -0.00003672    0.00003888   -0.01378900
     atom    6 type  1   force =     0.00003558   -0.00003351   -0.01398553
     atom    7 type  1   force =     0.00003490   -0.00003474   -0.01373705
     atom    8 type  1   force =    -0.00003583    0.00003800   -0.01393277
     atom    9 type  1   force =     0.00043585   -0.00006568    0.01474609
     atom   10 type  1   force =     0.00043613   -0.00006372    0.01297939
     atom   11 type  1   force =    -0.00001788   -0.00002653    0.01403950
     atom   12 type  1   force =    -0.00001637   -0.00002702    0.01368038
     atom   13 type  1   force =    -0.00041929    0.00000742    0.01387111
     atom   14 type  1   force =     0.00027429    0.00001357    0.01383531
     atom   15 type  1   force =    -0.00041878    0.00000637    0.01384974
     atom   16 type  1   force =     0.00027348    0.00001325    0.01388286
     atom   17 type  2   force =     0.00080756   -0.00070520    0.00486586
     atom   18 type  2   force =     0.00076425    0.00120458    0.00506496
     atom   19 type  2   force =     0.00076926    0.00121511    0.00401069
     atom   20 type  2   force =     0.00080666   -0.00069565    0.00420856
     atom   21 type  2   force =     0.00005158   -0.00001856    0.00454001
     atom   22 type  2   force =    -0.00006633    0.00006153    0.00454000
     atom   23 type  2   force =    -0.00005250   -0.00003784    0.00453905
     atom   24 type  2   force =     0.00003399   -0.00001974    0.00453873
     atom   25 type  2   force =    -0.00058491   -0.00032278   -0.00464132
     atom   26 type  2   force =     0.00023069    0.00003806   -0.00447817
     atom   27 type  2   force =    -0.00058004   -0.00032023   -0.00444118
     atom   28 type  2   force =     0.00023165    0.00003467   -0.00460068
     atom   29 type  2   force =     0.00054170   -0.00024068   -0.00405214
     atom   30 type  2   force =     0.00054210   -0.00024016   -0.00502656
     atom   31 type  2   force =     0.00002705    0.00000563   -0.00443621
     atom   32 type  2   force =     0.00002853    0.00000497   -0.00463807
     atom   33 type  3   force =    -0.00045111   -0.00135672    0.00004566
     atom   34 type  3   force =    -0.00002362   -0.00166377   -0.00015572
     atom   35 type  3   force =    -0.00035788   -0.00158227   -0.00001604
     atom   36 type  3   force =    -0.00004128   -0.00103139    0.00029041
     atom   37 type  3   force =    -0.00016483   -0.00129128    0.00015454
     atom   38 type  3   force =    -0.00018282   -0.00128571    0.00017598
     atom   39 type  3   force =    -0.00011931   -0.00127492    0.00020832
     atom   40 type  3   force =    -0.00020224   -0.00127037    0.00015159
     atom   41 type  3   force =    -0.00015766    0.00133561    0.00055656
     atom   42 type  3   force =    -0.00061960    0.00161518    0.00033658
     atom   43 type  3   force =    -0.00020888    0.00194392    0.00009091
     atom   44 type  3   force =    -0.00052616    0.00139357    0.00039739
     atom   45 type  3   force =    -0.00028776    0.00170033    0.00017506
     atom   46 type  3   force =    -0.00037089    0.00170469    0.00023185
     atom   47 type  3   force =    -0.00033312    0.00168402    0.00022869
     atom   48 type  3   force =    -0.00035134    0.00168935    0.00020766
     atom   49 type  3   force =     0.00066630    0.00150903   -0.00007293
     atom   50 type  3   force =    -0.00006047    0.00120208   -0.00021539
     atom   51 type  3   force =     0.00033583    0.00135898   -0.00002465
     atom   52 type  3   force =     0.00009128    0.00126933   -0.00019664
     atom   53 type  3   force =     0.00004399    0.00111443   -0.00029624
     atom   54 type  3   force =     0.00027622    0.00146535   -0.00003544
     atom   55 type  3   force =     0.00013002    0.00124549   -0.00019853
     atom   56 type  3   force =     0.00021528    0.00130853   -0.00014880
     atom   57 type  3   force =     0.00083809   -0.00147449   -0.00030053
     atom   58 type  3   force =     0.00010753   -0.00177348   -0.00016848
     atom   59 type  3   force =     0.00050502   -0.00161559   -0.00035935
     atom   60 type  3   force =     0.00025895   -0.00170615   -0.00018640
     atom   61 type  3   force =     0.00038396   -0.00166616   -0.00023348
     atom   62 type  3   force =     0.00029901   -0.00172923   -0.00018356
     atom   63 type  3   force =     0.00044514   -0.00150972   -0.00034695
     atom   64 type  3   force =     0.00021256   -0.00186020   -0.00008603
     atom   65 type  3   force =    -0.00878424    0.00541332    0.00543807
     atom   66 type  3   force =    -0.00877803    0.00540706    0.00552632
     atom   67 type  3   force =    -0.00887945    0.00547593    0.00546158
     atom   68 type  3   force =    -0.00851583    0.00524510    0.00544068
     atom   69 type  3   force =    -0.00888527    0.00548260    0.00583287
     atom   70 type  3   force =    -0.00898270    0.00546878    0.00552746
     atom   71 type  3   force =    -0.00871804    0.00539244    0.00551835
     atom   72 type  3   force =    -0.00879075    0.00538156    0.00543797
     atom   73 type  3   force =     0.00865240   -0.00523303    0.00549609
     atom   74 type  3   force =     0.00828690   -0.00500123    0.00547452
     atom   75 type  3   force =     0.00838852   -0.00507196    0.00541019
     atom   76 type  3   force =     0.00838058   -0.00506355    0.00549671
     atom   77 type  3   force =     0.00827278   -0.00499530    0.00509643
     atom   78 type  3   force =     0.00818221   -0.00500771    0.00540854
     atom   79 type  3   force =     0.00844638   -0.00508421    0.00541696
     atom   80 type  3   force =     0.00837294   -0.00509430    0.00549637
     atom   81 type  3   force =     0.00904082   -0.00563802   -0.00563303
     atom   82 type  3   force =     0.00845946   -0.00522392   -0.00530174
     atom   83 type  3   force =     0.00859360   -0.00513056   -0.00528030
     atom   84 type  3   force =     0.00835902   -0.00524895   -0.00530732
     atom   85 type  3   force =     0.00880728   -0.00539722   -0.00555788
     atom   86 type  3   force =     0.00869853   -0.00539567   -0.00538431
     atom   87 type  3   force =     0.00876015   -0.00535738   -0.00548995
     atom   88 type  3   force =     0.00873907   -0.00538429   -0.00543154
     atom   89 type  3   force =    -0.00856108    0.00533736   -0.00565848
     atom   90 type  3   force =    -0.00880505    0.00522773   -0.00562735
     atom   91 type  3   force =    -0.00812308    0.00483799   -0.00530100
     atom   92 type  3   force =    -0.00870457    0.00525259   -0.00563201
     atom   93 type  3   force =    -0.00846749    0.00508172   -0.00555166
     atom   94 type  3   force =    -0.00835928    0.00508005   -0.00537793
     atom   95 type  3   force =    -0.00842625    0.00509251   -0.00550368
     atom   96 type  3   force =    -0.00840536    0.00511945   -0.00544525

     Total force =     0.087758     Total SCF correction =     0.000065


     Computing stress (Cartesian axis) and pressure

          total   stress  (Ry/bohr**3)                   (kbar)     P=   40.58
   0.00029107   0.00000143   0.00000041         42.82      0.21      0.06
   0.00000143   0.00026677  -0.00000053          0.21     39.24     -0.08
   0.00000041  -0.00000053   0.00026978          0.06     -0.08     39.69


     init_run     :    107.76s CPU    109.81s WALL (       1 calls)
     electrons    :   4865.84s CPU   4954.61s WALL (       1 calls)
     forces       :     34.64s CPU     35.12s WALL (       1 calls)
     stress       :    300.58s CPU    301.55s WALL (       1 calls)

     Called by init_run:
     wfcinit      :     94.24s CPU     95.98s WALL (       1 calls)
     potinit      :      4.58s CPU      4.60s WALL (       1 calls)

     Called by electrons:
     c_bands      :   4195.04s CPU   4264.70s WALL (      22 calls)
     sum_band     :    635.15s CPU    648.82s WALL (      22 calls)
     v_of_rho     :      8.92s CPU      9.12s WALL (      23 calls)
     newd         :     25.60s CPU     31.09s WALL (      23 calls)
     mix_rho      :      2.36s CPU      2.38s WALL (      22 calls)

     Called by c_bands:
     init_us_2    :     24.72s CPU     24.78s WALL (     188 calls)
     cegterg      :   4123.02s CPU   4192.65s WALL (      88 calls)

     Called by sum_band:
     sum_band:bec :      0.20s CPU      0.20s WALL (      88 calls)
     addusdens    :     36.48s CPU     42.36s WALL (      22 calls)

     Called by *egterg:
     h_psi        :   3043.54s CPU   3086.03s WALL (     360 calls)
     s_psi        :    310.71s CPU    310.69s WALL (     360 calls)
     g_psi        :      5.41s CPU      5.41s WALL (     268 calls)
     cdiaghg      :    129.45s CPU    129.48s WALL (     356 calls)

     Called by h_psi:
     h_psi:pot    :   3026.33s CPU   3068.72s WALL (     360 calls)
     h_psi:calbec :    293.03s CPU    293.33s WALL (     360 calls)
     vloc_psi     :   2420.87s CPU   2462.94s WALL (     360 calls)
     add_vuspsi   :    312.42s CPU    312.46s WALL (     360 calls)

     General routines
     calbec       :    416.31s CPU    416.71s WALL (     468 calls)
     fft          :      8.04s CPU      8.40s WALL (     323 calls)
     fftw         :   2463.60s CPU   2512.55s WALL (  210882 calls)

     Parallel routines
     fft_scatt_xy :    423.87s CPU    424.18s WALL (  211205 calls)
     fft_scatt_yz :    458.50s CPU    486.92s WALL (  211205 calls)

     PWSCF        :     1h28m CPU        1h30m WALL


   This run was terminated on:  19:46:30  27Oct2021            

=------------------------------------------------------------------------------=
   JOB DONE.
=------------------------------------------------------------------------------=
Note: The following floating-point exceptions are signalling: IEEE_DIVIDE_BY_ZERO
Note: The following floating-point exceptions are signalling: IEEE_DIVIDE_BY_ZERO IEEE_UNDERFLOW_FLAG IEEE_DENORMAL
Note: The following floating-point exceptions are signalling: IEEE_DIVIDE_BY_ZERO
Note: The following floating-point exceptions are signalling: IEEE_DIVIDE_BY_ZERO
