
     Program PWSCF v.6.2 (svn rev. 13949:13950) starts on 27Oct2021 at 21:20:54 

     This program is part of the open-source Quantum ESPRESSO suite
     for quantum simulation of materials; please cite
         "P. Giannozzi et al., J. Phys.:Condens. Matter 21 395502 (2009);
         "P. Giannozzi et al., J. Phys.:Condens. Matter 29 465901 (2017);
          URL http://www.quantum-espresso.org", 
     in publications or presentations arising from this work. More details at
     http://www.quantum-espresso.org/quote

     Parallel version (MPI), running on     4 processors

     MPI processes distributed on     1 nodes
     R & G space division:  proc/nbgrp/npool/nimage =       4
     Reading input from headeradd_supercell-005.in

     Current dimensions of program PWSCF are:
     Max number of different atomic species (ntypx) = 10
     Max number of k-points (npk) =  40000
     Max angular momentum in pseudopotentials (lmaxx) =  3
     Message from routine iosys:
     minimal I/O required, wf_collect reset to FALSE
               file Bi.pbe-dn-rrkjus_psl.1.0.0.UPF: wavefunction(s)  5D renormalized
               file O.pbe-rrkjus.UPF: wavefunction(s)  2S renormalized

     Subspace diagonalization in iterative solution of the eigenvalue problem:
     a serial algorithm will be used


     Parallelization info
     --------------------
     sticks:   dense  smooth     PW     G-vecs:    dense   smooth      PW
     Min        2104    2104    550               165101   165101   22036
     Max        2105    2105    551               165102   165102   22038
     Sum        8417    8417   2201               660405   660405   88147



     bravais-lattice index     =            0
     lattice parameter (alat)  =      19.6286  a.u.
     unit-cell volume          =    8346.2129 (a.u.)^3
     number of atoms/cell      =           96
     number of atomic types    =            3
     number of electrons       =       704.00
     number of Kohn-Sham states=          352
     kinetic-energy cutoff     =      70.0000  Ry
     charge density cutoff     =     280.0000  Ry
     convergence threshold     =      1.0E-09
     mixing beta               =       0.7000
     number of iterations used =            8  plain     mixing
     Exchange-correlation      =  SLA  PW   PBE  PBE ( 1  4  3  4 0 0)

     celldm(1)=  19.628585  celldm(2)=   0.000000  celldm(3)=   0.000000
     celldm(4)=   0.000000  celldm(5)=   0.000000  celldm(6)=   0.000000

     crystal axes: (cart. coord. in units of alat)
               a(1) = (   1.000000   0.000000   0.000000 )  
               a(2) = (  -0.006620   0.980010   0.000000 )  
               a(3) = (   0.496690   0.490005   1.126138 )  

     reciprocal axes: (cart. coord. in units 2 pi/alat)
               b(1) = (  1.000000  0.006755 -0.443995 )  
               b(2) = (  0.000000  1.020397 -0.443995 )  
               b(3) = (  0.000000 -0.000000  0.887990 )  


     PseudoPot. # 1 for Bi read from file:
     /home/uezono/pseudo/Bi.pbe-dn-rrkjus_psl.1.0.0.UPF
     MD5 check sum: f9abe7488ae443f53c935a63d0032572
     Pseudo is Ultrasoft + core correction, Zval = 15.0
     Generated using "atomic" code by A. Dal Corso  v.6.2.2
     Using radial grid of 1283 points,  6 beta functions with: 
                l(1) =   0
                l(2) =   0
                l(3) =   1
                l(4) =   1
                l(5) =   2
                l(6) =   2
     Q(r) pseudized with 0 coefficients 


     PseudoPot. # 2 for V  read from file:
     /home/uezono/pseudo/V.pbe-n-van.UPF
     MD5 check sum: ff5646be6093ca757d9525862f4bfff1
     Pseudo is Ultrasoft + core correction, Zval =  5.0
     Generated by new atomic code, or converted to UPF format
     Using radial grid of  853 points,  6 beta functions with: 
                l(1) =   0
                l(2) =   0
                l(3) =   1
                l(4) =   1
                l(5) =   2
                l(6) =   2
     Q(r) pseudized with  8 coefficients,  rinner =    1.000   1.000   1.000
                                                       1.000   1.000

     PseudoPot. # 3 for O  read from file:
     /home/uezono/pseudo/O.pbe-rrkjus.UPF
     MD5 check sum: fadcf19ee70a498d3030e2e79cf929a4
     Pseudo is Ultrasoft, Zval =  6.0
     Generated by new atomic code, or converted to UPF format
     Using radial grid of 1269 points,  4 beta functions with: 
                l(1) =   0
                l(2) =   0
                l(3) =   1
                l(4) =   1
     Q(r) pseudized with 0 coefficients 


     atomic species   valence    mass     pseudopotential
        Bi            15.00   208.98040     Bi( 1.00)
        V              5.00    50.94150     V ( 1.00)
        O              6.00    15.99940     O ( 1.00)

     No symmetry found



   Cartesian axes

     site n.     atom                  positions (alat units)
         1           Bi  tau(   1) = (   0.2475177   0.3675039   0.1503395  )
         2           Bi  tau(   2) = (   0.7475177   0.3675039   0.1503395  )
         3           Bi  tau(   3) = (   0.2442079   0.8575091   0.1503395  )
         4           Bi  tau(   4) = (   0.7442079   0.8575091   0.1503395  )
         5           Bi  tau(   5) = (   0.4958628   0.6125065   0.7134087  )
         6           Bi  tau(   6) = (   0.9958628   0.6125065   0.7134087  )
         7           Bi  tau(   7) = (   0.4925531   1.1025117   0.7134087  )
         8           Bi  tau(   8) = (   0.9925531   1.1025117   0.7134087  )
         9           Bi  tau(   9) = (   0.4975177   0.3675039   0.4127297  )
        10           Bi  tau(  10) = (   0.9975177   0.3675039   0.4127297  )
        11           Bi  tau(  11) = (   0.4942079   0.8575091   0.4127297  )
        12           Bi  tau(  12) = (   0.9942079   0.8575091   0.4127297  )
        13           Bi  tau(  13) = (   0.7458628   0.6125065   0.9757990  )
        14           Bi  tau(  14) = (   1.2458628   0.6125065   0.9757990  )
        15           Bi  tau(  15) = (   0.7425531   1.1025117   0.9757990  )
        16           Bi  tau(  16) = (   1.2425531   1.1025117   0.9757990  )
        17           V   tau(  17) = (   0.4987905   0.1221244   0.1455318  )
        18           V   tau(  18) = (   0.9991726   0.1225013   0.1463980  )
        19           V   tau(  19) = (   0.4958628   0.6125065   0.1463980  )
        20           V   tau(  20) = (   0.9958628   0.6125065   0.1463980  )
        21           V   tau(  21) = (   0.7475177   0.3675039   0.7094672  )
        22           V   tau(  22) = (   1.2475177   0.3675039   0.7094672  )
        23           V   tau(  23) = (   0.7442079   0.8575091   0.7094672  )
        24           V   tau(  24) = (   1.2442079   0.8575091   0.7094672  )
        25           V   tau(  25) = (   0.2458628   0.6125065   0.4166712  )
        26           V   tau(  26) = (   0.7458628   0.6125065   0.4166712  )
        27           V   tau(  27) = (   0.2425531   1.1025117   0.4166712  )
        28           V   tau(  28) = (   0.7425531   1.1025117   0.4166712  )
        29           V   tau(  29) = (   0.4942079   0.8575091   0.9797404  )
        30           V   tau(  30) = (   0.9942079   0.8575091   0.9797404  )
        31           V   tau(  31) = (   0.4908982   1.3475143   0.9797404  )
        32           V   tau(  32) = (   0.9908982   1.3475143   0.9797404  )
        33           O   tau(  33) = (   0.5715696   0.2487756   0.2344620  )
        34           O   tau(  34) = (   1.0715696   0.2487756   0.2344620  )
        35           O   tau(  35) = (   0.5682599   0.7387808   0.2344620  )
        36           O   tau(  36) = (   1.0682599   0.7387808   0.2344620  )
        37           O   tau(  37) = (   0.8199148   0.4937782   0.7975312  )
        38           O   tau(  38) = (   1.3199148   0.4937782   0.7975312  )
        39           O   tau(  39) = (   0.8166050   0.9837834   0.7975312  )
        40           O   tau(  40) = (   1.3166050   0.9837834   0.7975312  )
        41           O   tau(  41) = (   0.4234657   0.4862321   0.2344620  )
        42           O   tau(  42) = (   0.9234657   0.4862321   0.2344620  )
        43           O   tau(  43) = (   0.4201560   0.9762373   0.2344620  )
        44           O   tau(  44) = (   0.9201560   0.9762373   0.2344620  )
        45           O   tau(  45) = (   0.6718109   0.7312347   0.7975312  )
        46           O   tau(  46) = (   1.1718109   0.7312347   0.7975312  )
        47           O   tau(  47) = (   0.6685011   1.2212399   0.7975312  )
        48           O   tau(  48) = (   1.1685011   1.2212399   0.7975312  )
        49           O   tau(  49) = (   0.1734657   0.4862321   0.3286072  )
        50           O   tau(  50) = (   0.6734657   0.4862321   0.3286072  )
        51           O   tau(  51) = (   0.1701560   0.9762373   0.3286072  )
        52           O   tau(  52) = (   0.6701560   0.9762373   0.3286072  )
        53           O   tau(  53) = (   0.4218109   0.7312347   0.8916764  )
        54           O   tau(  54) = (   0.9218109   0.7312347   0.8916764  )
        55           O   tau(  55) = (   0.4185011   1.2212399   0.8916764  )
        56           O   tau(  56) = (   0.9185011   1.2212399   0.8916764  )
        57           O   tau(  57) = (   0.3215696   0.2487756   0.3286072  )
        58           O   tau(  58) = (   0.8215696   0.2487756   0.3286072  )
        59           O   tau(  59) = (   0.3182599   0.7387808   0.3286072  )
        60           O   tau(  60) = (   0.8182599   0.7387808   0.3286072  )
        61           O   tau(  61) = (   0.5699148   0.4937782   0.8916764  )
        62           O   tau(  62) = (   1.0699148   0.4937782   0.8916764  )
        63           O   tau(  63) = (   0.5666050   0.9837834   0.8916764  )
        64           O   tau(  64) = (   1.0666050   0.9837834   0.8916764  )
        65           O   tau(  65) = (   0.6257292   0.6766972   0.5059740  )
        66           O   tau(  66) = (   1.1257292   0.6766972   0.5059740  )
        67           O   tau(  67) = (   0.6224195   1.1667024   0.5059740  )
        68           O   tau(  68) = (   1.1224195   1.1667024   0.5059740  )
        69           O   tau(  69) = (   0.8740744   0.9216998   1.0690432  )
        70           O   tau(  70) = (   1.3740744   0.9216998   1.0690432  )
        71           O   tau(  71) = (   0.8707646   1.4117049   1.0690432  )
        72           O   tau(  72) = (   1.3707646   1.4117049   1.0690432  )
        73           O   tau(  73) = (   0.3659964   0.5483158   0.5059740  )
        74           O   tau(  74) = (   0.8659964   0.5483158   0.5059740  )
        75           O   tau(  75) = (   0.3626866   1.0383210   0.5059740  )
        76           O   tau(  76) = (   0.8626866   1.0383210   0.5059740  )
        77           O   tau(  77) = (   0.6143415   0.7933184   1.0690432  )
        78           O   tau(  78) = (   1.1143415   0.7933184   1.0690432  )
        79           O   tau(  79) = (   0.6110318   1.2833236   1.0690432  )
        80           O   tau(  80) = (   1.1110318   1.2833236   1.0690432  )
        81           O   tau(  81) = (   0.1193061   0.0583106   0.0570952  )
        82           O   tau(  82) = (   0.6193061   0.0583106   0.0570952  )
        83           O   tau(  83) = (   0.1159964   0.5483158   0.0570952  )
        84           O   tau(  84) = (   0.6159964   0.5483158   0.0570952  )
        85           O   tau(  85) = (   0.3676513   0.3033132   0.6201644  )
        86           O   tau(  86) = (   0.8676513   0.3033132   0.6201644  )
        87           O   tau(  87) = (   0.3643415   0.7933184   0.6201644  )
        88           O   tau(  88) = (   0.8643415   0.7933184   0.6201644  )
        89           O   tau(  89) = (   0.3790390   0.1866920   0.0570952  )
        90           O   tau(  90) = (   0.8790390   0.1866920   0.0570952  )
        91           O   tau(  91) = (   0.3757292   0.6766972   0.0570952  )
        92           O   tau(  92) = (   0.8757292   0.6766972   0.0570952  )
        93           O   tau(  93) = (   0.6273841   0.4316946   0.6201644  )
        94           O   tau(  94) = (   1.1273841   0.4316946   0.6201644  )
        95           O   tau(  95) = (   0.6240744   0.9216998   0.6201644  )
        96           O   tau(  96) = (   1.1240744   0.9216998   0.6201644  )

     number of k points=     4
                       cart. coord. in units 2pi/alat
        k(    1) = (   0.2500000   0.2567880   0.0000000), wk =   0.5000000
        k(    2) = (   0.2500000   0.2567880  -0.4439951), wk =   0.5000000
        k(    3) = (   0.2500000  -0.2534107   0.2219976), wk =   0.5000000
        k(    4) = (  -0.2500000   0.2534107   0.2219976), wk =   0.5000000

     Dense  grid:   660405 G-vectors     FFT dimensions: ( 108, 108, 144)

     Estimated max dynamical RAM per process >       2.39 GB

     Estimated total dynamical RAM >       9.55 GB

     Initial potential from superposition of free atoms

     starting charge  703.96725, renormalised to  704.00000
     Starting wfc are  544 randomized atomic wfcs

     total cpu time spent up to now is      110.1 secs

     Self-consistent Calculation

     iteration #  1     ecut=    70.00 Ry     beta= 0.70
     Davidson diagonalization with overlap
     ethr =  1.00E-02,  avg # of iterations =  1.0

     total cpu time spent up to now is      270.3 secs

     total energy              =   -4949.31206543 Ry
     Harris-Foulkes estimate   =   -4981.29906389 Ry
     estimated scf accuracy    <      40.94016861 Ry

     iteration #  2     ecut=    70.00 Ry     beta= 0.70
     Davidson diagonalization with overlap
     ethr =  5.82E-03,  avg # of iterations =  4.0

     total cpu time spent up to now is      564.1 secs

     total energy              =   -4901.64226034 Ry
     Harris-Foulkes estimate   =   -5036.15136968 Ry
     estimated scf accuracy    <     570.60194328 Ry

     iteration #  3     ecut=    70.00 Ry     beta= 0.70
     Davidson diagonalization with overlap
     ethr =  5.82E-03,  avg # of iterations =  6.2

     total cpu time spent up to now is      869.5 secs

     total energy              =   -4970.01999726 Ry
     Harris-Foulkes estimate   =   -4977.38600764 Ry
     estimated scf accuracy    <      23.86413597 Ry

     iteration #  4     ecut=    70.00 Ry     beta= 0.70
     Davidson diagonalization with overlap
     ethr =  3.39E-03,  avg # of iterations =  2.0

     total cpu time spent up to now is     1067.6 secs

     total energy              =   -4972.11258243 Ry
     Harris-Foulkes estimate   =   -4972.74436248 Ry
     estimated scf accuracy    <       4.39241567 Ry

     iteration #  5     ecut=    70.00 Ry     beta= 0.70
     Davidson diagonalization with overlap
     ethr =  6.24E-04,  avg # of iterations =  2.0

     total cpu time spent up to now is     1233.0 secs

     total energy              =   -4971.79650157 Ry
     Harris-Foulkes estimate   =   -4972.31680680 Ry
     estimated scf accuracy    <       2.08670737 Ry

     iteration #  6     ecut=    70.00 Ry     beta= 0.70
     Davidson diagonalization with overlap
     ethr =  2.96E-04,  avg # of iterations =  3.0

     total cpu time spent up to now is     1438.1 secs

     total energy              =   -4972.08390023 Ry
     Harris-Foulkes estimate   =   -4972.11784834 Ry
     estimated scf accuracy    <       0.06302029 Ry

     iteration #  7     ecut=    70.00 Ry     beta= 0.70
     Davidson diagonalization with overlap
     ethr =  8.95E-06,  avg # of iterations =  4.0

     total cpu time spent up to now is     1700.0 secs

     total energy              =   -4972.08922507 Ry
     Harris-Foulkes estimate   =   -4972.12940679 Ry
     estimated scf accuracy    <       0.14279442 Ry

     iteration #  8     ecut=    70.00 Ry     beta= 0.70
     Davidson diagonalization with overlap
     ethr =  8.95E-06,  avg # of iterations =  3.0

     total cpu time spent up to now is     1939.8 secs

     total energy              =   -4972.09514328 Ry
     Harris-Foulkes estimate   =   -4972.11841778 Ry
     estimated scf accuracy    <       0.06933600 Ry

     iteration #  9     ecut=    70.00 Ry     beta= 0.70
     Davidson diagonalization with overlap
     ethr =  8.95E-06,  avg # of iterations =  3.0

     total cpu time spent up to now is     2176.1 secs

     total energy              =   -4972.10855497 Ry
     Harris-Foulkes estimate   =   -4972.11314053 Ry
     estimated scf accuracy    <       0.02705310 Ry

     iteration # 10     ecut=    70.00 Ry     beta= 0.70
     Davidson diagonalization with overlap
     ethr =  3.84E-06,  avg # of iterations =  3.0

     total cpu time spent up to now is     2362.5 secs

     total energy              =   -4972.10763110 Ry
     Harris-Foulkes estimate   =   -4972.11093772 Ry
     estimated scf accuracy    <       0.01167267 Ry

     iteration # 11     ecut=    70.00 Ry     beta= 0.70
     Davidson diagonalization with overlap
     ethr =  1.66E-06,  avg # of iterations =  3.0

     total cpu time spent up to now is     2566.7 secs

     total energy              =   -4972.10901776 Ry
     Harris-Foulkes estimate   =   -4972.10915005 Ry
     estimated scf accuracy    <       0.00034158 Ry

     iteration # 12     ecut=    70.00 Ry     beta= 0.70
     Davidson diagonalization with overlap
     ethr =  4.85E-08,  avg # of iterations =  4.0

     total cpu time spent up to now is     2815.6 secs

     total energy              =   -4972.10910941 Ry
     Harris-Foulkes estimate   =   -4972.10917206 Ry
     estimated scf accuracy    <       0.00024157 Ry

     iteration # 13     ecut=    70.00 Ry     beta= 0.70
     Davidson diagonalization with overlap
     ethr =  3.43E-08,  avg # of iterations =  3.0

     total cpu time spent up to now is     3028.4 secs

     total energy              =   -4972.10912972 Ry
     Harris-Foulkes estimate   =   -4972.10914655 Ry
     estimated scf accuracy    <       0.00005839 Ry

     iteration # 14     ecut=    70.00 Ry     beta= 0.70
     Davidson diagonalization with overlap
     ethr =  8.29E-09,  avg # of iterations =  3.0

     total cpu time spent up to now is     3245.1 secs

     total energy              =   -4972.10913621 Ry
     Harris-Foulkes estimate   =   -4972.10913990 Ry
     estimated scf accuracy    <       0.00001001 Ry

     iteration # 15     ecut=    70.00 Ry     beta= 0.70
     Davidson diagonalization with overlap
     ethr =  1.42E-09,  avg # of iterations =  3.0

     total cpu time spent up to now is     3493.0 secs

     total energy              =   -4972.10913649 Ry
     Harris-Foulkes estimate   =   -4972.10914087 Ry
     estimated scf accuracy    <       0.00001639 Ry

     iteration # 16     ecut=    70.00 Ry     beta= 0.70
     Davidson diagonalization with overlap
     ethr =  1.42E-09,  avg # of iterations =  3.0

     total cpu time spent up to now is     3720.1 secs

     total energy              =   -4972.10913845 Ry
     Harris-Foulkes estimate   =   -4972.10913865 Ry
     estimated scf accuracy    <       0.00000041 Ry

     iteration # 17     ecut=    70.00 Ry     beta= 0.70
     Davidson diagonalization with overlap
     ethr =  5.88E-11,  avg # of iterations =  3.2

     total cpu time spent up to now is     3972.4 secs

     total energy              =   -4972.10913850 Ry
     Harris-Foulkes estimate   =   -4972.10913874 Ry
     estimated scf accuracy    <       0.00000103 Ry

     iteration # 18     ecut=    70.00 Ry     beta= 0.70
     Davidson diagonalization with overlap
     ethr =  5.88E-11,  avg # of iterations =  3.0

     total cpu time spent up to now is     4212.5 secs

     total energy              =   -4972.10913860 Ry
     Harris-Foulkes estimate   =   -4972.10913864 Ry
     estimated scf accuracy    <       0.00000010 Ry

     iteration # 19     ecut=    70.00 Ry     beta= 0.70
     Davidson diagonalization with overlap
     ethr =  1.42E-11,  avg # of iterations =  3.0

     total cpu time spent up to now is     4438.6 secs

     total energy              =   -4972.10913862 Ry
     Harris-Foulkes estimate   =   -4972.10913862 Ry
     estimated scf accuracy    <       0.00000002 Ry

     iteration # 20     ecut=    70.00 Ry     beta= 0.70
     Davidson diagonalization with overlap
     ethr =  2.70E-12,  avg # of iterations =  3.0

     total cpu time spent up to now is     4671.7 secs

     total energy              =   -4972.10913862 Ry
     Harris-Foulkes estimate   =   -4972.10913862 Ry
     estimated scf accuracy    <          8.0E-09 Ry

     iteration # 21     ecut=    70.00 Ry     beta= 0.70
     Davidson diagonalization with overlap
     ethr =  1.14E-12,  avg # of iterations =  3.0

     total cpu time spent up to now is     4888.9 secs

     total energy              =   -4972.10913862 Ry
     Harris-Foulkes estimate   =   -4972.10913862 Ry
     estimated scf accuracy    <          1.1E-09 Ry

     iteration # 22     ecut=    70.00 Ry     beta= 0.70
     Davidson diagonalization with overlap
     ethr =  1.60E-13,  avg # of iterations =  3.0

     total cpu time spent up to now is     5131.4 secs

     total energy              =   -4972.10913862 Ry
     Harris-Foulkes estimate   =   -4972.10913862 Ry
     estimated scf accuracy    <          1.0E-09 Ry

     iteration # 23     ecut=    70.00 Ry     beta= 0.70
     Davidson diagonalization with overlap
     ethr =  1.44E-13,  avg # of iterations =  3.0

     total cpu time spent up to now is     5348.4 secs

     End of self-consistent calculation

          k = 0.2500 0.2568 0.0000 ( 82568 PWs)   bands (ev):

   -14.4883 -14.4872 -14.4864 -14.4853 -14.4842 -14.4833 -14.4829 -14.4788
   -14.4775 -14.4697 -14.4688 -14.4655 -14.4636 -14.4631 -14.4588 -14.4567
   -14.4523 -14.4500 -14.4477 -14.4361 -14.4339 -14.4319 -14.4293 -14.4242
   -14.4235 -14.4136 -14.4114 -14.4067 -14.4055 -14.4053 -14.4042 -14.4027
   -14.4015 -14.3993 -14.3987 -14.3980 -14.3975 -14.3967 -14.3948 -14.3947
   -14.3937 -14.3927 -14.3924 -14.3917 -14.3912 -14.3906 -14.3892 -14.3887
   -14.3877 -14.3850 -14.3840 -14.3822 -14.3804 -14.3801 -14.3794 -14.3792
   -14.3780 -14.3746 -14.3729 -14.3690 -14.3688 -14.3663 -14.3636 -14.3620
   -14.3602 -14.3599 -14.3586 -14.3574 -14.3553 -14.3530 -14.3525 -14.3517
   -14.3498 -14.3490 -14.3477 -14.3457 -14.3432 -14.3424 -14.3399 -14.3350
   -10.4951 -10.2948 -10.1673 -10.1624 -10.1215 -10.1165  -9.9293  -9.8042
    -9.6793  -9.6059  -9.6019  -9.6008  -9.5974  -9.5438  -9.4678  -9.3929
    -9.3587  -9.3242  -9.3194  -9.3153  -9.3041  -9.2821  -9.2797  -9.2513
    -9.2422  -9.1700  -9.1469  -9.1153  -9.1104  -9.0848  -9.0829  -9.0663
    -9.0638  -9.0430  -9.0404  -9.0384  -8.9765  -8.9728  -8.9548  -8.9469
    -8.9356  -8.9305  -8.9259  -8.8997  -8.8928  -8.8906  -8.8875  -8.8623
    -8.8283  -8.8257  -8.8235  -8.8228  -8.8201  -8.8051  -8.7871  -8.7822
    -8.7772  -8.7528  -8.7164  -8.7078  -8.7030  -8.6896  -8.6848  -8.6596
    -2.2084  -2.0753  -2.0723  -1.9654  -1.9028  -1.9002  -1.8928  -1.7946
    -1.5978  -1.5534  -1.5501  -1.5037  -1.4721  -1.3600  -1.3566  -1.3047
     2.4195   2.4644   2.4975   2.5019   2.5539   2.5552   2.6749   2.7347
     2.7367   2.7423   2.7506   2.7527   2.7659   2.7713   2.7758   2.8351
     2.8369   2.9410   2.9513   2.9761   2.9772   3.0038   3.1117   3.1795
     3.1827   3.2209   3.2505   3.2542   3.2817   3.3613   3.3856   3.3864
     3.4138   3.4213   3.4233   3.5337   3.5355   3.6259   3.6415   3.7105
     3.7131   3.7701   3.7754   3.7915   3.8951   3.8979   3.8992   3.9690
     3.9951   4.0178   4.0280   4.0402   4.0430   4.0441   4.0451   4.1463
     4.1858   4.2078   4.2094   4.2364   4.2392   4.2422   4.2455   4.2678
     4.2828   4.2863   4.3014   4.3517   4.3650   4.3676   4.3705   4.3766
     4.3818   4.3842   4.4049   4.4085   4.4426   4.4876   4.4934   4.4948
     4.5353   4.5391   4.6146   4.6350   4.6365   4.6423   4.6451   4.6711
     4.6744   4.6799   4.6961   4.6990   4.7121   4.7212   4.7667   4.7694
     4.7711   4.8414   4.8603   4.8622   4.9199   4.9335   5.0015   5.0078
     5.0087   5.0551   5.0573   5.0925   5.0945   5.1132   5.1229   5.1238
     5.1455   5.1466   5.2145   5.2737   5.2852   5.2872   5.2887   5.3626
     5.3685   5.3690   5.3946   5.3967   5.4241   5.5194   5.5205   5.5450
     5.6488   5.7442   5.7459   5.7510   5.8384   5.8534   5.8540   5.8704
     5.8902   5.9899   5.9923   5.9932   6.0032   6.0635   6.0655   6.1333
     6.1352   6.1555   6.2484   6.2709   6.2724   6.2727   6.2734   6.2755
     6.2844   6.2865   6.2952   6.4120   6.4127   6.4155   6.4190   6.4229
     6.4641   6.4672   6.4739   6.4758   6.4918   6.5823   6.5875   6.5915
     6.6955   6.6969   6.7270   6.7903   6.7923   6.7962   6.8111   6.8687
     6.8739   6.8788   6.8801   6.9324   6.9436   6.9450   6.9486   6.9893
     6.9913   7.0640   7.1492   7.2875   7.2897   7.3676   7.3706   7.4778

          k = 0.2500 0.2568-0.4440 ( 82488 PWs)   bands (ev):

   -14.4885 -14.4868 -14.4864 -14.4854 -14.4850 -14.4841 -14.4814 -14.4772
   -14.4756 -14.4743 -14.4710 -14.4603 -14.4585 -14.4572 -14.4567 -14.4555
   -14.4535 -14.4520 -14.4515 -14.4479 -14.4354 -14.4327 -14.4302 -14.4225
   -14.4206 -14.4169 -14.4149 -14.4139 -14.4075 -14.4061 -14.4044 -14.4024
   -14.3999 -14.3995 -14.3989 -14.3983 -14.3973 -14.3971 -14.3968 -14.3940
   -14.3936 -14.3926 -14.3923 -14.3911 -14.3899 -14.3883 -14.3878 -14.3858
   -14.3852 -14.3836 -14.3827 -14.3805 -14.3795 -14.3766 -14.3745 -14.3722
   -14.3720 -14.3716 -14.3711 -14.3704 -14.3699 -14.3683 -14.3678 -14.3664
   -14.3625 -14.3618 -14.3600 -14.3568 -14.3548 -14.3535 -14.3529 -14.3522
   -14.3505 -14.3497 -14.3491 -14.3475 -14.3441 -14.3424 -14.3399 -14.3346
   -10.4135 -10.4088 -10.2232 -10.1937 -10.0970 -10.0173  -9.8754  -9.8708
    -9.6763  -9.6000  -9.5589  -9.5138  -9.5098  -9.5038  -9.4944  -9.4892
    -9.4432  -9.4415  -9.3941  -9.3899  -9.2311  -9.2253  -9.2215  -9.1950
    -9.1920  -9.1728  -9.1685  -9.1538  -9.1435  -9.1375  -9.1228  -9.0844
    -9.0675  -9.0647  -9.0501  -8.9821  -8.9735  -8.9624  -8.9094  -8.9081
    -8.9024  -8.9001  -8.8936  -8.8905  -8.8868  -8.8791  -8.8774  -8.8741
    -8.8544  -8.8423  -8.8326  -8.8295  -8.8176  -8.8153  -8.8012  -8.7870
    -8.7838  -8.7651  -8.7211  -8.6994  -8.6943  -8.6879  -8.6836  -8.6824
    -2.1224  -2.1003  -2.0971  -2.0225  -1.9814  -1.8524  -1.8492  -1.7729
    -1.6570  -1.5452  -1.5421  -1.4953  -1.3899  -1.3785  -1.3746  -1.3300
     2.4965   2.5018   2.5661   2.5679   2.5705   2.5725   2.6232   2.6597
     2.6635   2.7254   2.7266   2.7507   2.7552   2.7767   2.8685   2.8691
     2.8713   2.8737   2.8768   2.8805   2.9156   3.0343   3.0917   3.1329
     3.1382   3.1407   3.2568   3.2609   3.2728   3.2863   3.2973   3.2981
     3.3717   3.4345   3.4618   3.4627   3.6019   3.6032   3.6723   3.7698
     3.7991   3.8286   3.9017   3.9034   3.9847   3.9858   4.0145   4.0364
     4.0465   4.0657   4.0842   4.0932   4.1178   4.1204   4.1489   4.1696
     4.1718   4.2051   4.2211   4.2227   4.2236   4.2359   4.2637   4.2842
     4.2852   4.2952   4.2978   4.2992   4.3182   4.3393   4.3409   4.3433
     4.4059   4.4305   4.4323   4.4346   4.4715   4.4736   4.4744   4.4791
     4.4801   4.4831   4.5266   4.5325   4.5505   4.5528   4.6015   4.6251
     4.6263   4.6416   4.6863   4.6874   4.7302   4.7909   4.8215   4.8230
     4.8310   4.8325   4.8644   4.8775   4.8796   4.8847   4.8866   4.8975
     4.8987   4.9911   5.0340   5.0373   5.0928   5.1053   5.1172   5.1534
     5.1651   5.1655   5.2048   5.2263   5.2456   5.2470   5.2540   5.2744
     5.3070   5.3357   5.3383   5.4447   5.4714   5.5702   5.5711   5.6569
     5.7132   5.7945   5.7994   5.8010   5.8114   5.8861   5.8873   5.9150
     5.9794   6.0126   6.0299   6.0315   6.0552   6.0656   6.0671   6.0684
     6.1155   6.1610   6.1688   6.1700   6.1870   6.2010   6.2027   6.2755
     6.3445   6.3535   6.3553   6.4000   6.4027   6.4108   6.4905   6.4917
     6.5008   6.5114   6.5242   6.5263   6.5781   6.5871   6.6180   6.6357
     6.6381   6.6564   6.6856   6.6875   6.7854   6.7891   6.8008   6.8048
     6.8239   6.8801   6.8820   6.9343   6.9371   6.9546   6.9569   6.9713
     7.0243   7.0314   7.0881   7.1802   7.3430   7.3460   7.4390   7.5542

          k = 0.2500-0.2534 0.2220 ( 82555 PWs)   bands (ev):

   -14.4885 -14.4875 -14.4864 -14.4857 -14.4852 -14.4839 -14.4817 -14.4767
   -14.4754 -14.4732 -14.4700 -14.4628 -14.4610 -14.4603 -14.4590 -14.4573
   -14.4538 -14.4502 -14.4472 -14.4420 -14.4358 -14.4312 -14.4285 -14.4247
   -14.4223 -14.4156 -14.4118 -14.4094 -14.4077 -14.4068 -14.4056 -14.4032
   -14.4003 -14.3992 -14.3985 -14.3977 -14.3970 -14.3966 -14.3946 -14.3940
   -14.3930 -14.3928 -14.3918 -14.3909 -14.3904 -14.3898 -14.3891 -14.3872
   -14.3865 -14.3857 -14.3834 -14.3831 -14.3810 -14.3791 -14.3758 -14.3748
   -14.3735 -14.3723 -14.3717 -14.3715 -14.3689 -14.3673 -14.3656 -14.3649
   -14.3616 -14.3605 -14.3573 -14.3565 -14.3559 -14.3550 -14.3521 -14.3513
   -14.3505 -14.3497 -14.3484 -14.3469 -14.3435 -14.3417 -14.3396 -14.3352
   -10.4770 -10.3413 -10.2002 -10.1561 -10.1049 -10.0277  -9.9431  -9.8693
    -9.6899  -9.6146  -9.6072  -9.5870  -9.5725  -9.4710  -9.4162  -9.4084
    -9.4062  -9.3902  -9.3836  -9.3598  -9.2464  -9.2346  -9.2230  -9.2021
    -9.1960  -9.1771  -9.1638  -9.1327  -9.1209  -9.1174  -9.1106  -9.1096
    -9.0627  -9.0588  -9.0563  -9.0245  -9.0228  -9.0104  -8.9374  -8.9357
    -8.9317  -8.9151  -8.9135  -8.8901  -8.8868  -8.8832  -8.8497  -8.8457
    -8.8413  -8.8402  -8.8088  -8.7978  -8.7949  -8.7860  -8.7842  -8.7728
    -8.7688  -8.7641  -8.7599  -8.7337  -8.7120  -8.7047  -8.6776  -8.6502
    -2.1760  -2.1131  -2.0310  -2.0118  -1.9595  -1.8801  -1.8248  -1.8180
    -1.6234  -1.5601  -1.5194  -1.5103  -1.4285  -1.3965  -1.3347  -1.3229
     2.4310   2.4820   2.5235   2.5568   2.5785   2.5807   2.5842   2.6374
     2.6911   2.7024   2.7265   2.7405   2.7830   2.7906   2.8057   2.8409
     2.8438   2.8594   3.0152   3.0347   3.0565   3.0835   3.1169   3.1270
     3.1426   3.1910   3.1945   3.2110   3.2341   3.2542   3.3126   3.3737
     3.5127   3.5257   3.5403   3.5509   3.5762   3.6001   3.6503   3.6575
     3.6876   3.6966   3.8621   3.8721   3.9120   3.9341   3.9448   3.9513
     3.9845   3.9864   4.0105   4.0487   4.0978   4.1144   4.1271   4.1411
     4.1484   4.1958   4.2010   4.2064   4.2122   4.2307   4.2336   4.2418
     4.2488   4.2530   4.2949   4.3072   4.3412   4.3553   4.3566   4.3840
     4.4241   4.4275   4.4339   4.4451   4.4537   4.4684   4.4965   4.5290
     4.5392   4.5408   4.5415   4.5654   4.5722   4.6677   4.6694   4.6830
     4.6887   4.7131   4.7351   4.7377   4.7497   4.7525   4.7566   4.7621
     4.7916   4.7985   4.8716   4.8757   4.8775   4.9042   4.9316   4.9655
     4.9758   5.0000   5.0320   5.0493   5.0929   5.0951   5.1232   5.1777
     5.1861   5.2026   5.2298   5.2562   5.2664   5.2684   5.2964   5.3010
     5.3749   5.3776   5.4497   5.4661   5.5033   5.5406   5.5451   5.6064
     5.6762   5.6873   5.6921   5.7126   5.7216   5.7491   5.8083   5.8534
     5.8890   5.9400   5.9606   5.9759   5.9881   6.0373   6.0478   6.1425
     6.1511   6.2010   6.2281   6.2526   6.2722   6.2741   6.2797   6.3119
     6.3349   6.3523   6.3586   6.3770   6.4243   6.4327   6.4342   6.4782
     6.4789   6.5023   6.5558   6.5672   6.6152   6.6212   6.6612   6.6651
     6.6910   6.6926   6.6937   6.7217   6.7264   6.7310   6.7488   6.7891
     6.8291   6.8708   6.8866   6.9211   6.9379   6.9433   6.9574   6.9795
     6.9812   7.0796   7.1207   7.2380   7.2882   7.3056   7.4632   7.4683

          k =-0.2500 0.2534 0.2220 ( 82555 PWs)   bands (ev):

   -14.4884 -14.4875 -14.4862 -14.4857 -14.4855 -14.4839 -14.4815 -14.4769
   -14.4751 -14.4738 -14.4697 -14.4630 -14.4616 -14.4595 -14.4591 -14.4565
   -14.4543 -14.4502 -14.4476 -14.4419 -14.4357 -14.4316 -14.4281 -14.4248
   -14.4224 -14.4154 -14.4120 -14.4090 -14.4078 -14.4069 -14.4052 -14.4037
   -14.4000 -14.3993 -14.3986 -14.3974 -14.3971 -14.3966 -14.3944 -14.3939
   -14.3935 -14.3928 -14.3919 -14.3912 -14.3904 -14.3898 -14.3885 -14.3878
   -14.3868 -14.3852 -14.3840 -14.3826 -14.3810 -14.3790 -14.3764 -14.3748
   -14.3740 -14.3727 -14.3710 -14.3709 -14.3688 -14.3677 -14.3653 -14.3648
   -14.3622 -14.3604 -14.3570 -14.3568 -14.3556 -14.3544 -14.3529 -14.3512
   -14.3504 -14.3495 -14.3486 -14.3466 -14.3441 -14.3415 -14.3395 -14.3352
   -10.4770 -10.3413 -10.2002 -10.1560 -10.1049 -10.0279  -9.9431  -9.8694
    -9.6895  -9.6147  -9.6072  -9.5873  -9.5726  -9.4710  -9.4164  -9.4082
    -9.4066  -9.3900  -9.3833  -9.3599  -9.2462  -9.2343  -9.2229  -9.2016
    -9.1964  -9.1769  -9.1649  -9.1330  -9.1205  -9.1179  -9.1111  -9.1075
    -9.0628  -9.0595  -9.0568  -9.0253  -9.0224  -9.0100  -8.9371  -8.9347
    -8.9322  -8.9149  -8.9136  -8.8900  -8.8866  -8.8837  -8.8497  -8.8459
    -8.8421  -8.8398  -8.8083  -8.7978  -8.7952  -8.7854  -8.7842  -8.7731
    -8.7691  -8.7641  -8.7599  -8.7334  -8.7118  -8.7049  -8.6775  -8.6502
    -2.1759  -2.1130  -2.0311  -2.0118  -1.9594  -1.8802  -1.8245  -1.8182
    -1.6234  -1.5603  -1.5192  -1.5105  -1.4285  -1.3964  -1.3350  -1.3228
     2.4308   2.4824   2.5243   2.5559   2.5776   2.5810   2.5834   2.6383
     2.6913   2.7021   2.7261   2.7411   2.7830   2.7908   2.8051   2.8410
     2.8443   2.8601   3.0154   3.0338   3.0562   3.0833   3.1172   3.1265
     3.1431   3.1910   3.1952   3.2104   3.2340   3.2547   3.3127   3.3730
     3.5131   3.5250   3.5408   3.5507   3.5762   3.6000   3.6506   3.6574
     3.6875   3.6966   3.8615   3.8727   3.9108   3.9333   3.9457   3.9513
     3.9848   3.9872   4.0108   4.0486   4.0978   4.1149   4.1282   4.1413
     4.1474   4.1953   4.2012   4.2057   4.2129   4.2314   4.2337   4.2428
     4.2503   4.2518   4.2940   4.3070   4.3398   4.3554   4.3565   4.3824
     4.4244   4.4267   4.4328   4.4444   4.4532   4.4691   4.4974   4.5291
     4.5392   4.5407   4.5428   4.5660   4.5735   4.6682   4.6692   4.6832
     4.6893   4.7124   4.7347   4.7385   4.7493   4.7530   4.7566   4.7629
     4.7920   4.7972   4.8720   4.8747   4.8773   4.9048   4.9315   4.9651
     4.9760   4.9999   5.0317   5.0507   5.0926   5.0950   5.1230   5.1783
     5.1860   5.2026   5.2299   5.2562   5.2660   5.2680   5.2962   5.3007
     5.3743   5.3767   5.4498   5.4657   5.5036   5.5401   5.5442   5.6064
     5.6768   5.6877   5.6926   5.7128   5.7219   5.7497   5.8082   5.8543
     5.8882   5.9403   5.9607   5.9761   5.9880   6.0379   6.0477   6.1430
     6.1510   6.2000   6.2286   6.2528   6.2726   6.2743   6.2805   6.3108
     6.3352   6.3523   6.3583   6.3769   6.4238   6.4323   6.4343   6.4776
     6.4798   6.5018   6.5547   6.5682   6.6143   6.6203   6.6612   6.6643
     6.6908   6.6924   6.6945   6.7222   6.7257   6.7315   6.7493   6.7895
     6.8289   6.8708   6.8874   6.9217   6.9378   6.9431   6.9571   6.9793
     6.9817   7.0791   7.1206   7.2380   7.2880   7.3056   7.4636   7.4682

     highest occupied level (ev):     7.5542

!    total energy              =   -4972.10913862 Ry
     Harris-Foulkes estimate   =   -4972.10913862 Ry
     estimated scf accuracy    <          1.3E-10 Ry

     The total energy is the sum of the following terms:

     one-electron contribution =   -1193.10560370 Ry
     hartree contribution      =    1074.13605859 Ry
     xc contribution           =   -1297.70197765 Ry
     ewald contribution        =   -3555.43761586 Ry

     convergence has been achieved in  23 iterations

     Forces acting on atoms (cartesian axes, Ry/au):

     atom    1 type  1   force =    -0.00032652    0.00064481   -0.01317914
     atom    2 type  1   force =    -0.00118055   -0.00077617   -0.01327124
     atom    3 type  1   force =    -0.00028888   -0.00033253   -0.01354540
     atom    4 type  1   force =     0.00022932   -0.00023887   -0.01333659
     atom    5 type  1   force =    -0.00001687   -0.00002210   -0.01398431
     atom    6 type  1   force =    -0.00000165    0.00000421   -0.01406869
     atom    7 type  1   force =     0.00002928    0.00003834   -0.01402967
     atom    8 type  1   force =    -0.00000897   -0.00001334   -0.01408733
     atom    9 type  1   force =     0.00042339   -0.00095024    0.01267139
     atom   10 type  1   force =    -0.00014720   -0.00008014    0.01383631
     atom   11 type  1   force =     0.00025153    0.00012717    0.01385137
     atom   12 type  1   force =    -0.00004277    0.00005668    0.01388986
     atom   13 type  1   force =    -0.00052688   -0.00001646    0.01317330
     atom   14 type  1   force =     0.00030323    0.00008426    0.01355580
     atom   15 type  1   force =    -0.00009497   -0.00002136    0.01384700
     atom   16 type  1   force =     0.00007792   -0.00007510    0.01387251
     atom   17 type  2   force =     0.00643907    0.00540898    0.01789110
     atom   18 type  2   force =    -0.00019889    0.00005686    0.00465427
     atom   19 type  2   force =     0.00002063   -0.00022932    0.00466308
     atom   20 type  2   force =    -0.00014706   -0.00013098    0.00473193
     atom   21 type  2   force =    -0.00011949   -0.00004872    0.00436497
     atom   22 type  2   force =     0.00008365   -0.00007118    0.00440535
     atom   23 type  2   force =    -0.00001079    0.00006863    0.00442451
     atom   24 type  2   force =     0.00003018    0.00003559    0.00446713
     atom   25 type  2   force =     0.00017821    0.00000010   -0.00446458
     atom   26 type  2   force =    -0.00007873   -0.00018839   -0.00465886
     atom   27 type  2   force =     0.00017475    0.00024235   -0.00467579
     atom   28 type  2   force =    -0.00060407    0.00018929   -0.00504188
     atom   29 type  2   force =    -0.00016030    0.00010624   -0.00453724
     atom   30 type  2   force =     0.00015414    0.00025215   -0.00476471
     atom   31 type  2   force =    -0.00001406   -0.00007495   -0.00455062
     atom   32 type  2   force =     0.00029475   -0.00045378   -0.00501559
     atom   33 type  3   force =    -0.00263750   -0.00548671   -0.00356271
     atom   34 type  3   force =    -0.00012490   -0.00125827    0.00008035
     atom   35 type  3   force =    -0.00012734   -0.00121397    0.00013852
     atom   36 type  3   force =    -0.00014775   -0.00126399    0.00014748
     atom   37 type  3   force =    -0.00013499   -0.00117467    0.00032671
     atom   38 type  3   force =    -0.00016340   -0.00121495    0.00026047
     atom   39 type  3   force =    -0.00015977   -0.00127842    0.00021194
     atom   40 type  3   force =    -0.00019402   -0.00128737    0.00019997
     atom   41 type  3   force =    -0.00046075    0.00192624    0.00006501
     atom   42 type  3   force =    -0.00006290    0.00196806    0.00024543
     atom   43 type  3   force =    -0.00071793    0.00169783   -0.00115850
     atom   44 type  3   force =    -0.00030642    0.00170002    0.00013272
     atom   45 type  3   force =    -0.00032341    0.00160502    0.00034271
     atom   46 type  3   force =    -0.00036122    0.00164376    0.00028178
     atom   47 type  3   force =    -0.00032394    0.00168477    0.00027095
     atom   48 type  3   force =    -0.00036511    0.00168516    0.00027180
     atom   49 type  3   force =     0.00021069    0.00114519   -0.00040812
     atom   50 type  3   force =     0.00030344    0.00154286   -0.00005211
     atom   51 type  3   force =     0.00013375    0.00120497   -0.00024644
     atom   52 type  3   force =     0.00036613    0.00093459   -0.00004976
     atom   53 type  3   force =     0.00012422    0.00123700   -0.00014912
     atom   54 type  3   force =     0.00014837    0.00124954   -0.00004732
     atom   55 type  3   force =     0.00017962    0.00132411   -0.00011741
     atom   56 type  3   force =     0.00025562    0.00147206   -0.00002178
     atom   57 type  3   force =    -0.00007096   -0.00176637   -0.00017103
     atom   58 type  3   force =     0.00065279   -0.00162326   -0.00010335
     atom   59 type  3   force =     0.00031319   -0.00167596   -0.00024712
     atom   60 type  3   force =     0.00034802   -0.00161975   -0.00033812
     atom   61 type  3   force =     0.00043818   -0.00161770   -0.00016628
     atom   62 type  3   force =     0.00027377   -0.00178493   -0.00005553
     atom   63 type  3   force =     0.00035786   -0.00170403   -0.00018354
     atom   64 type  3   force =     0.00029370   -0.00177948   -0.00013177
     atom   65 type  3   force =    -0.00882858    0.00544747    0.00550241
     atom   66 type  3   force =    -0.00878539    0.00537599    0.00550132
     atom   67 type  3   force =    -0.00868495    0.00532984    0.00566531
     atom   68 type  3   force =    -0.00881593    0.00539372    0.00553178
     atom   69 type  3   force =    -0.00874993    0.00524145    0.00553312
     atom   70 type  3   force =    -0.00858457    0.00538326    0.00524437
     atom   71 type  3   force =    -0.00878728    0.00576448    0.00587159
     atom   72 type  3   force =    -0.00877511    0.00540556    0.00545586
     atom   73 type  3   force =     0.00820661   -0.00489063    0.00548235
     atom   74 type  3   force =     0.00845920   -0.00509750    0.00552877
     atom   75 type  3   force =     0.00844597   -0.00514172    0.00549245
     atom   76 type  3   force =     0.00862053   -0.00519487    0.00561580
     atom   77 type  3   force =     0.00855117   -0.00517777    0.00553342
     atom   78 type  3   force =     0.00827278   -0.00524709    0.00543552
     atom   79 type  3   force =     0.00841684   -0.00509434    0.00544799
     atom   80 type  3   force =     0.00826896   -0.00492691    0.00542052
     atom   81 type  3   force =     0.00892582   -0.00538610   -0.00554675
     atom   82 type  3   force =     0.01077674   -0.00702618   -0.00870823
     atom   83 type  3   force =     0.00892635   -0.00552172   -0.00548509
     atom   84 type  3   force =     0.00867632   -0.00530069   -0.00551184
     atom   85 type  3   force =     0.00862014   -0.00537588   -0.00530251
     atom   86 type  3   force =     0.00875637   -0.00536564   -0.00540437
     atom   87 type  3   force =     0.00873477   -0.00537231   -0.00542775
     atom   88 type  3   force =     0.00874632   -0.00539708   -0.00541381
     atom   89 type  3   force =    -0.01298274    0.00668119   -0.01012982
     atom   90 type  3   force =    -0.00837320    0.00496108   -0.00551827
     atom   91 type  3   force =    -0.00849172    0.00517087   -0.00557165
     atom   92 type  3   force =    -0.00847289    0.00514881   -0.00549222
     atom   93 type  3   force =    -0.00828823    0.00509761   -0.00531265
     atom   94 type  3   force =    -0.00842558    0.00511998   -0.00543481
     atom   95 type  3   force =    -0.00839152    0.00504450   -0.00542069
     atom   96 type  3   force =    -0.00840569    0.00508722   -0.00543618

     Total force =     0.091224     Total SCF correction =     0.000037


     Computing stress (Cartesian axis) and pressure

          total   stress  (Ry/bohr**3)                   (kbar)     P=   40.64
   0.00029287  -0.00000100   0.00000011         43.08     -0.15      0.02
  -0.00000100   0.00026577  -0.00000118         -0.15     39.10     -0.17
   0.00000011  -0.00000118   0.00027012          0.02     -0.17     39.74


     init_run     :    107.76s CPU    109.79s WALL (       1 calls)
     electrons    :   5141.68s CPU   5238.27s WALL (       1 calls)
     forces       :     34.92s CPU     35.42s WALL (       1 calls)
     stress       :    299.58s CPU    300.62s WALL (       1 calls)

     Called by init_run:
     wfcinit      :     94.36s CPU     96.06s WALL (       1 calls)
     potinit      :      4.44s CPU      4.47s WALL (       1 calls)

     Called by electrons:
     c_bands      :   4438.49s CPU   4515.01s WALL (      23 calls)
     sum_band     :    666.15s CPU    680.40s WALL (      23 calls)
     v_of_rho     :      9.29s CPU      9.54s WALL (      24 calls)
     newd         :     26.47s CPU     32.28s WALL (      24 calls)
     mix_rho      :      2.48s CPU      2.51s WALL (      23 calls)

     Called by c_bands:
     init_us_2    :     25.75s CPU     25.79s WALL (     196 calls)
     cegterg      :   4363.19s CPU   4439.68s WALL (      92 calls)

     Called by sum_band:
     sum_band:bec :      0.23s CPU      0.21s WALL (      92 calls)
     addusdens    :     38.11s CPU     44.28s WALL (      23 calls)

     Called by *egterg:
     h_psi        :   3213.17s CPU   3261.17s WALL (     382 calls)
     s_psi        :    328.90s CPU    328.95s WALL (     382 calls)
     g_psi        :      5.55s CPU      5.62s WALL (     286 calls)
     cdiaghg      :    137.02s CPU    137.07s WALL (     378 calls)

     Called by h_psi:
     h_psi:pot    :   3195.22s CPU   3243.03s WALL (     382 calls)
     h_psi:calbec :    309.11s CPU    309.44s WALL (     382 calls)
     vloc_psi     :   2555.84s CPU   2603.34s WALL (     382 calls)
     add_vuspsi   :    330.27s CPU    330.25s WALL (     382 calls)

     General routines
     calbec       :    438.48s CPU    438.93s WALL (     494 calls)
     fft          :      8.93s CPU      9.34s WALL (     336 calls)
     fftw         :   2598.14s CPU   2653.12s WALL (  222174 calls)

     Parallel routines
     fft_scatt_xy :    449.83s CPU    451.17s WALL (  222510 calls)
     fft_scatt_yz :    500.06s CPU    531.29s WALL (  222510 calls)

     PWSCF        :     1h33m CPU        1h34m WALL


   This run was terminated on:  22:55:39  27Oct2021            

=------------------------------------------------------------------------------=
   JOB DONE.
=------------------------------------------------------------------------------=
Note: The following floating-point exceptions are signalling: IEEE_DIVIDE_BY_ZERO
Note: The following floating-point exceptions are signalling: IEEE_DIVIDE_BY_ZERO
Note: The following floating-point exceptions are signalling: IEEE_DIVIDE_BY_ZERO IEEE_UNDERFLOW_FLAG IEEE_DENORMAL
Note: The following floating-point exceptions are signalling: IEEE_DIVIDE_BY_ZERO
