
     Program PWSCF v.6.2 (svn rev. 13949:13950) starts on 28Oct2021 at  0:26:16 

     This program is part of the open-source Quantum ESPRESSO suite
     for quantum simulation of materials; please cite
         "P. Giannozzi et al., J. Phys.:Condens. Matter 21 395502 (2009);
         "P. Giannozzi et al., J. Phys.:Condens. Matter 29 465901 (2017);
          URL http://www.quantum-espresso.org", 
     in publications or presentations arising from this work. More details at
     http://www.quantum-espresso.org/quote

     Parallel version (MPI), running on     4 processors

     MPI processes distributed on     1 nodes
     R & G space division:  proc/nbgrp/npool/nimage =       4
     Reading input from headeradd_supercell-007.in

     Current dimensions of program PWSCF are:
     Max number of different atomic species (ntypx) = 10
     Max number of k-points (npk) =  40000
     Max angular momentum in pseudopotentials (lmaxx) =  3
     Message from routine iosys:
     minimal I/O required, wf_collect reset to FALSE
               file Bi.pbe-dn-rrkjus_psl.1.0.0.UPF: wavefunction(s)  5D renormalized
               file O.pbe-rrkjus.UPF: wavefunction(s)  2S renormalized

     Subspace diagonalization in iterative solution of the eigenvalue problem:
     a serial algorithm will be used


     Parallelization info
     --------------------
     sticks:   dense  smooth     PW     G-vecs:    dense   smooth      PW
     Min        2104    2104    550               165101   165101   22036
     Max        2105    2105    551               165102   165102   22038
     Sum        8417    8417   2201               660405   660405   88147



     bravais-lattice index     =            0
     lattice parameter (alat)  =      19.6286  a.u.
     unit-cell volume          =    8346.2129 (a.u.)^3
     number of atoms/cell      =           96
     number of atomic types    =            3
     number of electrons       =       704.00
     number of Kohn-Sham states=          352
     kinetic-energy cutoff     =      70.0000  Ry
     charge density cutoff     =     280.0000  Ry
     convergence threshold     =      1.0E-09
     mixing beta               =       0.7000
     number of iterations used =            8  plain     mixing
     Exchange-correlation      =  SLA  PW   PBE  PBE ( 1  4  3  4 0 0)

     celldm(1)=  19.628585  celldm(2)=   0.000000  celldm(3)=   0.000000
     celldm(4)=   0.000000  celldm(5)=   0.000000  celldm(6)=   0.000000

     crystal axes: (cart. coord. in units of alat)
               a(1) = (   1.000000   0.000000   0.000000 )  
               a(2) = (  -0.006620   0.980010   0.000000 )  
               a(3) = (   0.496690   0.490005   1.126138 )  

     reciprocal axes: (cart. coord. in units 2 pi/alat)
               b(1) = (  1.000000  0.006755 -0.443995 )  
               b(2) = (  0.000000  1.020397 -0.443995 )  
               b(3) = (  0.000000 -0.000000  0.887990 )  


     PseudoPot. # 1 for Bi read from file:
     /home/uezono/pseudo/Bi.pbe-dn-rrkjus_psl.1.0.0.UPF
     MD5 check sum: f9abe7488ae443f53c935a63d0032572
     Pseudo is Ultrasoft + core correction, Zval = 15.0
     Generated using "atomic" code by A. Dal Corso  v.6.2.2
     Using radial grid of 1283 points,  6 beta functions with: 
                l(1) =   0
                l(2) =   0
                l(3) =   1
                l(4) =   1
                l(5) =   2
                l(6) =   2
     Q(r) pseudized with 0 coefficients 


     PseudoPot. # 2 for V  read from file:
     /home/uezono/pseudo/V.pbe-n-van.UPF
     MD5 check sum: ff5646be6093ca757d9525862f4bfff1
     Pseudo is Ultrasoft + core correction, Zval =  5.0
     Generated by new atomic code, or converted to UPF format
     Using radial grid of  853 points,  6 beta functions with: 
                l(1) =   0
                l(2) =   0
                l(3) =   1
                l(4) =   1
                l(5) =   2
                l(6) =   2
     Q(r) pseudized with  8 coefficients,  rinner =    1.000   1.000   1.000
                                                       1.000   1.000

     PseudoPot. # 3 for O  read from file:
     /home/uezono/pseudo/O.pbe-rrkjus.UPF
     MD5 check sum: fadcf19ee70a498d3030e2e79cf929a4
     Pseudo is Ultrasoft, Zval =  6.0
     Generated by new atomic code, or converted to UPF format
     Using radial grid of 1269 points,  4 beta functions with: 
                l(1) =   0
                l(2) =   0
                l(3) =   1
                l(4) =   1
     Q(r) pseudized with 0 coefficients 


     atomic species   valence    mass     pseudopotential
        Bi            15.00   208.98040     Bi( 1.00)
        V              5.00    50.94150     V ( 1.00)
        O              6.00    15.99940     O ( 1.00)

     No symmetry found



   Cartesian axes

     site n.     atom                  positions (alat units)
         1           Bi  tau(   1) = (   0.2475177   0.3675039   0.1503395  )
         2           Bi  tau(   2) = (   0.7475177   0.3675039   0.1503395  )
         3           Bi  tau(   3) = (   0.2442079   0.8575091   0.1503395  )
         4           Bi  tau(   4) = (   0.7442079   0.8575091   0.1503395  )
         5           Bi  tau(   5) = (   0.4958628   0.6125065   0.7134087  )
         6           Bi  tau(   6) = (   0.9958628   0.6125065   0.7134087  )
         7           Bi  tau(   7) = (   0.4925531   1.1025117   0.7134087  )
         8           Bi  tau(   8) = (   0.9925531   1.1025117   0.7134087  )
         9           Bi  tau(   9) = (   0.4975177   0.3675039   0.4127297  )
        10           Bi  tau(  10) = (   0.9975177   0.3675039   0.4127297  )
        11           Bi  tau(  11) = (   0.4942079   0.8575091   0.4127297  )
        12           Bi  tau(  12) = (   0.9942079   0.8575091   0.4127297  )
        13           Bi  tau(  13) = (   0.7458628   0.6125065   0.9757990  )
        14           Bi  tau(  14) = (   1.2458628   0.6125065   0.9757990  )
        15           Bi  tau(  15) = (   0.7425531   1.1025117   0.9757990  )
        16           Bi  tau(  16) = (   1.2425531   1.1025117   0.9757990  )
        17           V   tau(  17) = (   0.4991726   0.1225013   0.1463980  )
        18           V   tau(  18) = (   0.9991726   0.1225013   0.1463980  )
        19           V   tau(  19) = (   0.4958628   0.6125065   0.1463980  )
        20           V   tau(  20) = (   0.9958628   0.6125065   0.1463980  )
        21           V   tau(  21) = (   0.7475177   0.3675039   0.7094672  )
        22           V   tau(  22) = (   1.2475177   0.3675039   0.7094672  )
        23           V   tau(  23) = (   0.7442079   0.8575091   0.7094672  )
        24           V   tau(  24) = (   1.2442079   0.8575091   0.7094672  )
        25           V   tau(  25) = (   0.2458628   0.6125065   0.4166712  )
        26           V   tau(  26) = (   0.7458628   0.6125065   0.4166712  )
        27           V   tau(  27) = (   0.2425531   1.1025117   0.4166712  )
        28           V   tau(  28) = (   0.7425531   1.1025117   0.4166712  )
        29           V   tau(  29) = (   0.4942079   0.8575091   0.9797404  )
        30           V   tau(  30) = (   0.9942079   0.8575091   0.9797404  )
        31           V   tau(  31) = (   0.4908982   1.3475143   0.9797404  )
        32           V   tau(  32) = (   0.9908982   1.3475143   0.9797404  )
        33           O   tau(  33) = (   0.5725886   0.2487756   0.2344620  )
        34           O   tau(  34) = (   1.0715696   0.2487756   0.2344620  )
        35           O   tau(  35) = (   0.5682599   0.7387808   0.2344620  )
        36           O   tau(  36) = (   1.0682599   0.7387808   0.2344620  )
        37           O   tau(  37) = (   0.8199148   0.4937782   0.7975312  )
        38           O   tau(  38) = (   1.3199148   0.4937782   0.7975312  )
        39           O   tau(  39) = (   0.8166050   0.9837834   0.7975312  )
        40           O   tau(  40) = (   1.3166050   0.9837834   0.7975312  )
        41           O   tau(  41) = (   0.4234657   0.4862321   0.2344620  )
        42           O   tau(  42) = (   0.9234657   0.4862321   0.2344620  )
        43           O   tau(  43) = (   0.4201560   0.9762373   0.2344620  )
        44           O   tau(  44) = (   0.9201560   0.9762373   0.2344620  )
        45           O   tau(  45) = (   0.6718109   0.7312347   0.7975312  )
        46           O   tau(  46) = (   1.1718109   0.7312347   0.7975312  )
        47           O   tau(  47) = (   0.6685011   1.2212399   0.7975312  )
        48           O   tau(  48) = (   1.1685011   1.2212399   0.7975312  )
        49           O   tau(  49) = (   0.1734657   0.4862321   0.3286072  )
        50           O   tau(  50) = (   0.6734657   0.4862321   0.3286072  )
        51           O   tau(  51) = (   0.1701560   0.9762373   0.3286072  )
        52           O   tau(  52) = (   0.6701560   0.9762373   0.3286072  )
        53           O   tau(  53) = (   0.4218109   0.7312347   0.8916764  )
        54           O   tau(  54) = (   0.9218109   0.7312347   0.8916764  )
        55           O   tau(  55) = (   0.4185011   1.2212399   0.8916764  )
        56           O   tau(  56) = (   0.9185011   1.2212399   0.8916764  )
        57           O   tau(  57) = (   0.3215696   0.2487756   0.3286072  )
        58           O   tau(  58) = (   0.8215696   0.2487756   0.3286072  )
        59           O   tau(  59) = (   0.3182599   0.7387808   0.3286072  )
        60           O   tau(  60) = (   0.8182599   0.7387808   0.3286072  )
        61           O   tau(  61) = (   0.5699148   0.4937782   0.8916764  )
        62           O   tau(  62) = (   1.0699148   0.4937782   0.8916764  )
        63           O   tau(  63) = (   0.5666050   0.9837834   0.8916764  )
        64           O   tau(  64) = (   1.0666050   0.9837834   0.8916764  )
        65           O   tau(  65) = (   0.6257292   0.6766972   0.5059740  )
        66           O   tau(  66) = (   1.1257292   0.6766972   0.5059740  )
        67           O   tau(  67) = (   0.6224195   1.1667024   0.5059740  )
        68           O   tau(  68) = (   1.1224195   1.1667024   0.5059740  )
        69           O   tau(  69) = (   0.8740744   0.9216998   1.0690432  )
        70           O   tau(  70) = (   1.3740744   0.9216998   1.0690432  )
        71           O   tau(  71) = (   0.8707646   1.4117049   1.0690432  )
        72           O   tau(  72) = (   1.3707646   1.4117049   1.0690432  )
        73           O   tau(  73) = (   0.3659964   0.5483158   0.5059740  )
        74           O   tau(  74) = (   0.8659964   0.5483158   0.5059740  )
        75           O   tau(  75) = (   0.3626866   1.0383210   0.5059740  )
        76           O   tau(  76) = (   0.8626866   1.0383210   0.5059740  )
        77           O   tau(  77) = (   0.6143415   0.7933184   1.0690432  )
        78           O   tau(  78) = (   1.1143415   0.7933184   1.0690432  )
        79           O   tau(  79) = (   0.6110318   1.2833236   1.0690432  )
        80           O   tau(  80) = (   1.1110318   1.2833236   1.0690432  )
        81           O   tau(  81) = (   0.1193061   0.0583106   0.0570952  )
        82           O   tau(  82) = (   0.6193061   0.0583106   0.0570952  )
        83           O   tau(  83) = (   0.1159964   0.5483158   0.0570952  )
        84           O   tau(  84) = (   0.6159964   0.5483158   0.0570952  )
        85           O   tau(  85) = (   0.3676513   0.3033132   0.6201644  )
        86           O   tau(  86) = (   0.8676513   0.3033132   0.6201644  )
        87           O   tau(  87) = (   0.3643415   0.7933184   0.6201644  )
        88           O   tau(  88) = (   0.8643415   0.7933184   0.6201644  )
        89           O   tau(  89) = (   0.3790390   0.1866920   0.0570952  )
        90           O   tau(  90) = (   0.8790390   0.1866920   0.0570952  )
        91           O   tau(  91) = (   0.3757292   0.6766972   0.0570952  )
        92           O   tau(  92) = (   0.8757292   0.6766972   0.0570952  )
        93           O   tau(  93) = (   0.6273841   0.4316946   0.6201644  )
        94           O   tau(  94) = (   1.1273841   0.4316946   0.6201644  )
        95           O   tau(  95) = (   0.6240744   0.9216998   0.6201644  )
        96           O   tau(  96) = (   1.1240744   0.9216998   0.6201644  )

     number of k points=     4
                       cart. coord. in units 2pi/alat
        k(    1) = (   0.2500000   0.2567880   0.0000000), wk =   0.5000000
        k(    2) = (   0.2500000   0.2567880  -0.4439951), wk =   0.5000000
        k(    3) = (   0.2500000  -0.2534107   0.2219976), wk =   0.5000000
        k(    4) = (  -0.2500000   0.2534107   0.2219976), wk =   0.5000000

     Dense  grid:   660405 G-vectors     FFT dimensions: ( 108, 108, 144)

     Estimated max dynamical RAM per process >       2.39 GB

     Estimated total dynamical RAM >       9.55 GB

     Initial potential from superposition of free atoms

     starting charge  703.96725, renormalised to  704.00000
     Starting wfc are  544 randomized atomic wfcs

     total cpu time spent up to now is      110.1 secs

     Self-consistent Calculation

     iteration #  1     ecut=    70.00 Ry     beta= 0.70
     Davidson diagonalization with overlap
     ethr =  1.00E-02,  avg # of iterations =  1.0

     total cpu time spent up to now is      270.3 secs

     total energy              =   -4949.30565700 Ry
     Harris-Foulkes estimate   =   -4981.29939547 Ry
     estimated scf accuracy    <      40.94775607 Ry

     iteration #  2     ecut=    70.00 Ry     beta= 0.70
     Davidson diagonalization with overlap
     ethr =  5.82E-03,  avg # of iterations =  4.0

     total cpu time spent up to now is      564.2 secs

     total energy              =   -4901.62868952 Ry
     Harris-Foulkes estimate   =   -5036.19985571 Ry
     estimated scf accuracy    <     570.96021476 Ry

     iteration #  3     ecut=    70.00 Ry     beta= 0.70
     Davidson diagonalization with overlap
     ethr =  5.82E-03,  avg # of iterations =  6.2

     total cpu time spent up to now is      869.6 secs

     total energy              =   -4970.00243007 Ry
     Harris-Foulkes estimate   =   -4977.37997069 Ry
     estimated scf accuracy    <      23.89927185 Ry

     iteration #  4     ecut=    70.00 Ry     beta= 0.70
     Davidson diagonalization with overlap
     ethr =  3.39E-03,  avg # of iterations =  2.0

     total cpu time spent up to now is     1067.7 secs

     total energy              =   -4972.11252248 Ry
     Harris-Foulkes estimate   =   -4972.74527529 Ry
     estimated scf accuracy    <       4.39231929 Ry

     iteration #  5     ecut=    70.00 Ry     beta= 0.70
     Davidson diagonalization with overlap
     ethr =  6.24E-04,  avg # of iterations =  2.0

     total cpu time spent up to now is     1233.0 secs

     total energy              =   -4971.79142706 Ry
     Harris-Foulkes estimate   =   -4972.31649163 Ry
     estimated scf accuracy    <       2.08829621 Ry

     iteration #  6     ecut=    70.00 Ry     beta= 0.70
     Davidson diagonalization with overlap
     ethr =  2.97E-04,  avg # of iterations =  3.0

     total cpu time spent up to now is     1438.9 secs

     total energy              =   -4972.08198967 Ry
     Harris-Foulkes estimate   =   -4972.11829181 Ry
     estimated scf accuracy    <       0.06290659 Ry

     iteration #  7     ecut=    70.00 Ry     beta= 0.70
     Davidson diagonalization with overlap
     ethr =  8.94E-06,  avg # of iterations =  4.0

     total cpu time spent up to now is     1701.1 secs

     total energy              =   -4972.08197426 Ry
     Harris-Foulkes estimate   =   -4972.12792441 Ry
     estimated scf accuracy    <       0.11427049 Ry

     iteration #  8     ecut=    70.00 Ry     beta= 0.70
     Davidson diagonalization with overlap
     ethr =  8.94E-06,  avg # of iterations =  3.0

     total cpu time spent up to now is     1947.8 secs

     total energy              =   -4972.10715190 Ry
     Harris-Foulkes estimate   =   -4972.11588599 Ry
     estimated scf accuracy    <       0.04882982 Ry

     iteration #  9     ecut=    70.00 Ry     beta= 0.70
     Davidson diagonalization with overlap
     ethr =  6.94E-06,  avg # of iterations =  3.0

     total cpu time spent up to now is     2155.6 secs

     total energy              =   -4972.10757804 Ry
     Harris-Foulkes estimate   =   -4972.11367963 Ry
     estimated scf accuracy    <       0.02780900 Ry

     iteration # 10     ecut=    70.00 Ry     beta= 0.70
     Davidson diagonalization with overlap
     ethr =  3.95E-06,  avg # of iterations =  2.0

     total cpu time spent up to now is     2337.5 secs

     total energy              =   -4972.10853726 Ry
     Harris-Foulkes estimate   =   -4972.10974778 Ry
     estimated scf accuracy    <       0.00402646 Ry

     iteration # 11     ecut=    70.00 Ry     beta= 0.70
     Davidson diagonalization with overlap
     ethr =  5.72E-07,  avg # of iterations =  3.0

     total cpu time spent up to now is     2555.6 secs

     total energy              =   -4972.10930812 Ry
     Harris-Foulkes estimate   =   -4972.10934636 Ry
     estimated scf accuracy    <       0.00019088 Ry

     iteration # 12     ecut=    70.00 Ry     beta= 0.70
     Davidson diagonalization with overlap
     ethr =  2.71E-08,  avg # of iterations =  3.0

     total cpu time spent up to now is     2792.4 secs

     total energy              =   -4972.10930342 Ry
     Harris-Foulkes estimate   =   -4972.10936758 Ry
     estimated scf accuracy    <       0.00025843 Ry

     iteration # 13     ecut=    70.00 Ry     beta= 0.70
     Davidson diagonalization with overlap
     ethr =  2.71E-08,  avg # of iterations =  3.0

     total cpu time spent up to now is     3006.0 secs

     total energy              =   -4972.10932646 Ry
     Harris-Foulkes estimate   =   -4972.10933381 Ry
     estimated scf accuracy    <       0.00002500 Ry

     iteration # 14     ecut=    70.00 Ry     beta= 0.70
     Davidson diagonalization with overlap
     ethr =  3.55E-09,  avg # of iterations =  3.0

     total cpu time spent up to now is     3227.4 secs

     total energy              =   -4972.10932933 Ry
     Harris-Foulkes estimate   =   -4972.10933135 Ry
     estimated scf accuracy    <       0.00000645 Ry

     iteration # 15     ecut=    70.00 Ry     beta= 0.70
     Davidson diagonalization with overlap
     ethr =  9.16E-10,  avg # of iterations =  3.0

     total cpu time spent up to now is     3461.6 secs

     total energy              =   -4972.10933002 Ry
     Harris-Foulkes estimate   =   -4972.10933097 Ry
     estimated scf accuracy    <       0.00000321 Ry

     iteration # 16     ecut=    70.00 Ry     beta= 0.70
     Davidson diagonalization with overlap
     ethr =  4.55E-10,  avg # of iterations =  3.0

     total cpu time spent up to now is     3672.8 secs

     total energy              =   -4972.10933045 Ry
     Harris-Foulkes estimate   =   -4972.10933054 Ry
     estimated scf accuracy    <       0.00000021 Ry

     iteration # 17     ecut=    70.00 Ry     beta= 0.70
     Davidson diagonalization with overlap
     ethr =  2.95E-11,  avg # of iterations =  4.0

     total cpu time spent up to now is     3941.3 secs

     total energy              =   -4972.10933048 Ry
     Harris-Foulkes estimate   =   -4972.10933058 Ry
     estimated scf accuracy    <       0.00000042 Ry

     iteration # 18     ecut=    70.00 Ry     beta= 0.70
     Davidson diagonalization with overlap
     ethr =  2.95E-11,  avg # of iterations =  3.0

     total cpu time spent up to now is     4178.1 secs

     total energy              =   -4972.10933053 Ry
     Harris-Foulkes estimate   =   -4972.10933054 Ry
     estimated scf accuracy    <       0.00000006 Ry

     iteration # 19     ecut=    70.00 Ry     beta= 0.70
     Davidson diagonalization with overlap
     ethr =  8.22E-12,  avg # of iterations =  3.0

     total cpu time spent up to now is     4396.6 secs

     total energy              =   -4972.10933053 Ry
     Harris-Foulkes estimate   =   -4972.10933054 Ry
     estimated scf accuracy    <          7.2E-09 Ry

     iteration # 20     ecut=    70.00 Ry     beta= 0.70
     Davidson diagonalization with overlap
     ethr =  1.03E-12,  avg # of iterations =  3.0

     total cpu time spent up to now is     4640.0 secs

     total energy              =   -4972.10933053 Ry
     Harris-Foulkes estimate   =   -4972.10933054 Ry
     estimated scf accuracy    <       0.00000001 Ry

     iteration # 21     ecut=    70.00 Ry     beta= 0.70
     Davidson diagonalization with overlap
     ethr =  1.03E-12,  avg # of iterations =  3.0

     total cpu time spent up to now is     4874.8 secs

     total energy              =   -4972.10933053 Ry
     Harris-Foulkes estimate   =   -4972.10933054 Ry
     estimated scf accuracy    <          2.2E-09 Ry

     iteration # 22     ecut=    70.00 Ry     beta= 0.70
     Davidson diagonalization with overlap
     ethr =  3.17E-13,  avg # of iterations =  3.0

     total cpu time spent up to now is     5103.2 secs

     End of self-consistent calculation

          k = 0.2500 0.2568 0.0000 ( 82568 PWs)   bands (ev):

   -14.4870 -14.4870 -14.4864 -14.4848 -14.4835 -14.4830 -14.4828 -14.4804
   -14.4775 -14.4689 -14.4685 -14.4667 -14.4633 -14.4630 -14.4579 -14.4572
   -14.4516 -14.4508 -14.4479 -14.4362 -14.4335 -14.4310 -14.4300 -14.4248
   -14.4232 -14.4126 -14.4119 -14.4056 -14.4054 -14.4051 -14.4041 -14.4023
   -14.4018 -14.3984 -14.3981 -14.3977 -14.3972 -14.3965 -14.3946 -14.3945
   -14.3936 -14.3926 -14.3920 -14.3917 -14.3914 -14.3908 -14.3895 -14.3888
   -14.3871 -14.3854 -14.3838 -14.3824 -14.3809 -14.3802 -14.3796 -14.3789
   -14.3781 -14.3739 -14.3731 -14.3694 -14.3679 -14.3669 -14.3635 -14.3615
   -14.3598 -14.3593 -14.3587 -14.3576 -14.3558 -14.3527 -14.3525 -14.3512
   -14.3502 -14.3486 -14.3477 -14.3458 -14.3441 -14.3417 -14.3405 -14.3357
   -10.4959 -10.2961 -10.1661 -10.1657 -10.1203 -10.1199  -9.9300  -9.8055
    -9.6779  -9.6048  -9.6042  -9.5997  -9.5995  -9.5450  -9.4695  -9.3937
    -9.3595  -9.3212  -9.3207  -9.3145  -9.3027  -9.2803  -9.2798  -9.2522
    -9.2430  -9.1711  -9.1483  -9.1141  -9.1138  -9.0839  -9.0835  -9.0660
    -9.0636  -9.0420  -9.0402  -9.0398  -8.9742  -8.9739  -8.9536  -8.9456
    -8.9345  -8.9338  -8.9248  -8.8991  -8.8917  -8.8907  -8.8892  -8.8629
    -8.8254  -8.8248  -8.8243  -8.8221  -8.8212  -8.8047  -8.7841  -8.7836
    -8.7765  -8.7532  -8.7146  -8.7048  -8.7042  -8.6866  -8.6860  -8.6589
    -2.2086  -2.0741  -2.0737  -1.9656  -1.9018  -1.9011  -1.8932  -1.7947
    -1.5977  -1.5523  -1.5514  -1.5036  -1.4723  -1.3588  -1.3576  -1.3048
     2.4200   2.4644   2.4987   2.4994   2.5542   2.5546   2.6750   2.7353
     2.7362   2.7412   2.7506   2.7520   2.7650   2.7709   2.7755   2.8355
     2.8359   2.9411   2.9520   2.9761   2.9766   3.0045   3.1131   3.1807
     3.1810   3.2214   3.2518   3.2526   3.2813   3.3615   3.3863   3.3868
     3.4145   3.4221   3.4223   3.5344   3.5351   3.6266   3.6427   3.7116
     3.7124   3.7691   3.7760   3.7910   3.8969   3.8975   3.8983   3.9698
     3.9951   4.0185   4.0279   4.0426   4.0428   4.0436   4.0443   4.1461
     4.1866   4.2090   4.2093   4.2363   4.2399   4.2409   4.2452   4.2679
     4.2850   4.2858   4.3006   4.3518   4.3651   4.3694   4.3700   4.3765
     4.3828   4.3832   4.4053   4.4085   4.4427   4.4868   4.4933   4.4940
     4.5359   4.5378   4.6143   4.6348   4.6353   4.6440   4.6446   4.6732
     4.6735   4.6798   4.6968   4.7002   4.7137   4.7220   4.7672   4.7704
     4.7708   4.8415   4.8614   4.8618   4.9198   4.9342   5.0019   5.0079
     5.0082   5.0564   5.0569   5.0931   5.0939   5.1133   5.1230   5.1234
     5.1457   5.1462   5.2146   5.2738   5.2867   5.2870   5.2883   5.3620
     5.3685   5.3690   5.3936   5.3976   5.4239   5.5202   5.5204   5.5457
     5.6495   5.7455   5.7463   5.7517   5.8377   5.8541   5.8542   5.8704
     5.8910   5.9900   5.9928   5.9935   6.0036   6.0650   6.0653   6.1333
     6.1356   6.1556   6.2483   6.2717   6.2721   6.2740   6.2744   6.2752
     6.2853   6.2857   6.2956   6.4121   6.4129   6.4134   6.4195   6.4235
     6.4646   6.4650   6.4740   6.4746   6.4925   6.5824   6.5899   6.5904
     6.6962   6.6974   6.7261   6.7914   6.7916   6.7959   6.8123   6.8679
     6.8739   6.8789   6.8797   6.9327   6.9423   6.9472   6.9476   6.9903
     6.9908   7.0643   7.1490   7.2888   7.2894   7.3695   7.3700   7.4777

          k = 0.2500 0.2568-0.4440 ( 82488 PWs)   bands (ev):

   -14.4874 -14.4869 -14.4860 -14.4846 -14.4843 -14.4840 -14.4823 -14.4781
   -14.4751 -14.4735 -14.4720 -14.4605 -14.4574 -14.4569 -14.4563 -14.4557
   -14.4529 -14.4525 -14.4518 -14.4489 -14.4350 -14.4319 -14.4309 -14.4228
   -14.4203 -14.4160 -14.4154 -14.4137 -14.4075 -14.4055 -14.4036 -14.4028
   -14.3997 -14.3991 -14.3977 -14.3973 -14.3971 -14.3969 -14.3965 -14.3946
   -14.3932 -14.3926 -14.3919 -14.3917 -14.3900 -14.3885 -14.3880 -14.3854
   -14.3850 -14.3835 -14.3829 -14.3815 -14.3791 -14.3756 -14.3749 -14.3722
   -14.3714 -14.3711 -14.3710 -14.3703 -14.3696 -14.3689 -14.3678 -14.3672
   -14.3624 -14.3614 -14.3605 -14.3562 -14.3540 -14.3536 -14.3531 -14.3517
   -14.3510 -14.3496 -14.3491 -14.3473 -14.3455 -14.3415 -14.3405 -14.3352
   -10.4123 -10.4119 -10.2240 -10.1946 -10.0984 -10.0188  -9.8742  -9.8738
    -9.6767  -9.6003  -9.5593  -9.5145  -9.5086  -9.5080  -9.4912  -9.4906
    -9.4419  -9.4404  -9.3929  -9.3925  -9.2305  -9.2247  -9.2241  -9.1948
    -9.1943  -9.1700  -9.1694  -9.1523  -9.1421  -9.1385  -9.1235  -9.0859
    -9.0664  -9.0659  -9.0501  -8.9817  -8.9743  -8.9638  -8.9094  -8.9079
    -8.9002  -8.8997  -8.8943  -8.8890  -8.8882  -8.8801  -8.8759  -8.8755
    -8.8531  -8.8406  -8.8309  -8.8306  -8.8161  -8.8158  -8.8007  -8.7857
    -8.7853  -8.7647  -8.7196  -8.6978  -8.6926  -8.6855  -8.6848  -8.6822
    -2.1225  -2.0992  -2.0987  -2.0227  -1.9815  -1.8513  -1.8506  -1.7730
    -1.6571  -1.5441  -1.5430  -1.4954  -1.3897  -1.3773  -1.3761  -1.3300
     2.4968   2.5002   2.5660   2.5692   2.5696   2.5718   2.6233   2.6616
     2.6620   2.7258   2.7262   2.7516   2.7520   2.7767   2.8684   2.8700
     2.8702   2.8740   2.8785   2.8791   2.9147   3.0341   3.0925   3.1337
     3.1399   3.1401   3.2572   3.2598   3.2723   3.2857   3.2979   3.2983
     3.3723   3.4348   3.4616   3.4623   3.6027   3.6032   3.6719   3.7704
     3.7987   3.8287   3.9029   3.9032   3.9858   3.9862   4.0147   4.0365
     4.0476   4.0662   4.0843   4.0938   4.1178   4.1185   4.1498   4.1700
     4.1708   4.2040   4.2223   4.2226   4.2240   4.2367   4.2647   4.2851
     4.2857   4.2966   4.2982   4.2987   4.3193   4.3396   4.3401   4.3428
     4.4060   4.4313   4.4323   4.4338   4.4730   4.4736   4.4743   4.4784
     4.4813   4.4820   4.5267   4.5328   4.5513   4.5518   4.6017   4.6253
     4.6256   4.6413   4.6863   4.6871   4.7304   4.7923   4.8225   4.8231
     4.8319   4.8324   4.8644   4.8784   4.8787   4.8857   4.8862   4.8975
     4.8983   4.9913   5.0361   5.0367   5.0929   5.1057   5.1166   5.1533
     5.1653   5.1660   5.2046   5.2259   5.2458   5.2463   5.2547   5.2752
     5.3074   5.3364   5.3370   5.4453   5.4712   5.5705   5.5710   5.6570
     5.7133   5.7954   5.8001   5.8011   5.8116   5.8866   5.8868   5.9158
     5.9801   6.0126   6.0304   6.0309   6.0562   6.0659   6.0675   6.0683
     6.1155   6.1610   6.1698   6.1700   6.1877   6.2020   6.2024   6.2754
     6.3442   6.3548   6.3556   6.4017   6.4021   6.4097   6.4915   6.4916
     6.5013   6.5126   6.5235   6.5264   6.5773   6.5875   6.6173   6.6366
     6.6373   6.6574   6.6858   6.6864   6.7875   6.7881   6.8018   6.8023
     6.8248   6.8809   6.8813   6.9350   6.9355   6.9554   6.9563   6.9715
     7.0244   7.0311   7.0891   7.1807   7.3440   7.3448   7.4398   7.5548

          k = 0.2500-0.2534 0.2220 ( 82555 PWs)   bands (ev):

   -14.4877 -14.4865 -14.4860 -14.4856 -14.4850 -14.4840 -14.4821 -14.4775
   -14.4750 -14.4728 -14.4705 -14.4632 -14.4607 -14.4596 -14.4588 -14.4568
   -14.4540 -14.4506 -14.4474 -14.4423 -14.4354 -14.4308 -14.4285 -14.4253
   -14.4220 -14.4150 -14.4119 -14.4089 -14.4075 -14.4067 -14.4051 -14.4034
   -14.3998 -14.3981 -14.3978 -14.3974 -14.3967 -14.3962 -14.3946 -14.3940
   -14.3933 -14.3924 -14.3918 -14.3910 -14.3903 -14.3896 -14.3893 -14.3877
   -14.3865 -14.3853 -14.3839 -14.3825 -14.3819 -14.3788 -14.3760 -14.3743
   -14.3736 -14.3725 -14.3712 -14.3710 -14.3690 -14.3677 -14.3654 -14.3647
   -14.3615 -14.3605 -14.3571 -14.3562 -14.3556 -14.3549 -14.3523 -14.3510
   -14.3504 -14.3497 -14.3483 -14.3469 -14.3450 -14.3409 -14.3399 -14.3360
   -10.4779 -10.3426 -10.2010 -10.1568 -10.1061 -10.0290  -9.9442  -9.8709
    -9.6905  -9.6132  -9.6077  -9.5885  -9.5733  -9.4717  -9.4147  -9.4079
    -9.4069  -9.3900  -9.3832  -9.3603  -9.2470  -9.2337  -9.2227  -9.2014
    -9.1967  -9.1781  -9.1650  -9.1334  -9.1211  -9.1185  -9.1113  -9.1105
    -9.0625  -9.0579  -9.0571  -9.0237  -9.0220  -9.0101  -8.9363  -8.9357
    -8.9316  -8.9145  -8.9139  -8.8895  -8.8863  -8.8850  -8.8486  -8.8476
    -8.8418  -8.8398  -8.8079  -8.7960  -8.7952  -8.7841  -8.7836  -8.7721
    -8.7685  -8.7636  -8.7591  -8.7327  -8.7103  -8.7048  -8.6764  -8.6495
    -2.1761  -2.1132  -2.0312  -2.0120  -1.9597  -1.8801  -1.8246  -1.8183
    -1.6236  -1.5600  -1.5193  -1.5104  -1.4286  -1.3964  -1.3347  -1.3231
     2.4311   2.4819   2.5236   2.5564   2.5782   2.5804   2.5827   2.6382
     2.6915   2.7009   2.7260   2.7411   2.7828   2.7904   2.8054   2.8415
     2.8422   2.8596   3.0155   3.0338   3.0569   3.0831   3.1173   3.1268
     3.1429   3.1920   3.1945   3.2119   3.2341   3.2543   3.3125   3.3725
     3.5130   3.5259   3.5414   3.5500   3.5761   3.6009   3.6512   3.6566
     3.6880   3.6972   3.8621   3.8734   3.9123   3.9340   3.9451   3.9525
     3.9844   3.9866   4.0117   4.0481   4.0979   4.1148   4.1278   4.1410
     4.1485   4.1957   4.2020   4.2054   4.2121   4.2315   4.2340   4.2423
     4.2492   4.2523   4.2946   4.3077   4.3414   4.3555   4.3571   4.3839
     4.4243   4.4275   4.4332   4.4451   4.4534   4.4686   4.4965   4.5301
     4.5391   4.5407   4.5414   4.5652   4.5724   4.6685   4.6697   4.6827
     4.6891   4.7128   4.7347   4.7381   4.7500   4.7529   4.7571   4.7633
     4.7918   4.7982   4.8719   4.8757   4.8779   4.9045   4.9325   4.9653
     4.9769   5.0001   5.0320   5.0498   5.0931   5.0955   5.1235   5.1778
     5.1856   5.2027   5.2300   5.2567   5.2665   5.2683   5.2962   5.3008
     5.3745   5.3764   5.4496   5.4661   5.5038   5.5404   5.5446   5.6073
     5.6761   5.6876   5.6922   5.7132   5.7218   5.7490   5.8086   5.8541
     5.8894   5.9410   5.9610   5.9759   5.9884   6.0376   6.0480   6.1434
     6.1512   6.2008   6.2276   6.2533   6.2728   6.2744   6.2797   6.3119
     6.3353   6.3529   6.3588   6.3777   6.4244   6.4330   6.4340   6.4788
     6.4791   6.5018   6.5549   6.5678   6.6153   6.6213   6.6619   6.6652
     6.6909   6.6918   6.6935   6.7221   6.7265   6.7318   6.7482   6.7900
     6.8302   6.8699   6.8874   6.9216   6.9376   6.9427   6.9567   6.9794
     6.9815   7.0802   7.1205   7.2385   7.2887   7.3055   7.4635   7.4685

          k =-0.2500 0.2534 0.2220 ( 82555 PWs)   bands (ev):

   -14.4877 -14.4866 -14.4858 -14.4855 -14.4853 -14.4840 -14.4821 -14.4774
   -14.4750 -14.4729 -14.4704 -14.4632 -14.4610 -14.4594 -14.4589 -14.4566
   -14.4542 -14.4505 -14.4475 -14.4422 -14.4354 -14.4309 -14.4284 -14.4253
   -14.4220 -14.4149 -14.4120 -14.4087 -14.4075 -14.4069 -14.4050 -14.4035
   -14.3996 -14.3983 -14.3980 -14.3972 -14.3967 -14.3963 -14.3946 -14.3937
   -14.3932 -14.3923 -14.3919 -14.3911 -14.3903 -14.3897 -14.3894 -14.3877
   -14.3866 -14.3850 -14.3837 -14.3827 -14.3820 -14.3786 -14.3758 -14.3745
   -14.3737 -14.3725 -14.3710 -14.3708 -14.3692 -14.3676 -14.3654 -14.3649
   -14.3616 -14.3605 -14.3568 -14.3563 -14.3559 -14.3547 -14.3524 -14.3511
   -14.3503 -14.3495 -14.3485 -14.3469 -14.3448 -14.3410 -14.3398 -14.3360
   -10.4779 -10.3426 -10.2010 -10.1568 -10.1061 -10.0290  -9.9442  -9.8709
    -9.6905  -9.6133  -9.6076  -9.5885  -9.5734  -9.4716  -9.4147  -9.4079
    -9.4069  -9.3901  -9.3831  -9.3603  -9.2469  -9.2336  -9.2225  -9.2014
    -9.1968  -9.1781  -9.1655  -9.1333  -9.1211  -9.1187  -9.1109  -9.1104
    -9.0626  -9.0580  -9.0572  -9.0239  -9.0219  -9.0099  -8.9363  -8.9354
    -8.9317  -8.9145  -8.9138  -8.8895  -8.8862  -8.8851  -8.8487  -8.8475
    -8.8420  -8.8398  -8.8079  -8.7962  -8.7951  -8.7841  -8.7835  -8.7721
    -8.7686  -8.7635  -8.7591  -8.7326  -8.7102  -8.7049  -8.6764  -8.6495
    -2.1761  -2.1133  -2.0312  -2.0120  -1.9595  -1.8802  -1.8249  -1.8182
    -1.6233  -1.5602  -1.5191  -1.5106  -1.4285  -1.3964  -1.3347  -1.3231
     2.4311   2.4820   2.5239   2.5560   2.5782   2.5805   2.5824   2.6382
     2.6913   2.7009   2.7260   2.7412   2.7827   2.7908   2.8052   2.8416
     2.8421   2.8599   3.0157   3.0335   3.0567   3.0832   3.1175   3.1266
     3.1428   3.1922   3.1946   3.2114   3.2339   3.2546   3.3123   3.3726
     3.5132   3.5261   3.5409   3.5502   3.5766   3.6008   3.6511   3.6567
     3.6879   3.6971   3.8613   3.8730   3.9121   3.9337   3.9457   3.9527
     3.9849   3.9868   4.0119   4.0482   4.0983   4.1154   4.1282   4.1410
     4.1481   4.1957   4.2018   4.2054   4.2128   4.2319   4.2340   4.2429
     4.2497   4.2523   4.2940   4.3077   4.3410   4.3551   4.3569   4.3829
     4.4240   4.4272   4.4330   4.4446   4.4532   4.4689   4.4967   4.5300
     4.5386   4.5405   4.5418   4.5652   4.5727   4.6689   4.6693   4.6826
     4.6894   4.7127   4.7349   4.7385   4.7501   4.7527   4.7575   4.7637
     4.7922   4.7976   4.8720   4.8753   4.8776   4.9043   4.9325   4.9657
     4.9769   4.9995   5.0316   5.0504   5.0930   5.0952   5.1236   5.1784
     5.1854   5.2029   5.2305   5.2568   5.2663   5.2685   5.2960   5.3005
     5.3746   5.3765   5.4497   5.4659   5.5042   5.5400   5.5441   5.6071
     5.6765   5.6877   5.6929   5.7131   5.7218   5.7492   5.8081   5.8545
     5.8892   5.9407   5.9609   5.9765   5.9884   6.0376   6.0480   6.1435
     6.1516   6.2007   6.2280   6.2533   6.2728   6.2746   6.2806   6.3114
     6.3355   6.3531   6.3581   6.3779   6.4242   6.4328   6.4341   6.4786
     6.4791   6.5013   6.5548   6.5678   6.6150   6.6214   6.6619   6.6649
     6.6911   6.6918   6.6937   6.7218   6.7263   6.7319   6.7481   6.7900
     6.8302   6.8701   6.8877   6.9219   6.9377   6.9423   6.9570   6.9798
     6.9818   7.0794   7.1203   7.2382   7.2887   7.3057   7.4637   7.4687

     highest occupied level (ev):     7.5548

!    total energy              =   -4972.10933053 Ry
     Harris-Foulkes estimate   =   -4972.10933053 Ry
     estimated scf accuracy    <          5.7E-10 Ry

     The total energy is the sum of the following terms:

     one-electron contribution =   -1193.12271676 Ry
     hartree contribution      =    1074.14436367 Ry
     xc contribution           =   -1297.69755793 Ry
     ewald contribution        =   -3555.43341952 Ry

     convergence has been achieved in  22 iterations

     Forces acting on atoms (cartesian axes, Ry/au):

     atom    1 type  1   force =    -0.00028587    0.00025250   -0.01386473
     atom    2 type  1   force =     0.00017565    0.00002174   -0.01396597
     atom    3 type  1   force =    -0.00019312   -0.00015274   -0.01391411
     atom    4 type  1   force =     0.00012640   -0.00012481   -0.01371234
     atom    5 type  1   force =     0.00000143    0.00002266   -0.01385921
     atom    6 type  1   force =    -0.00001698    0.00000475   -0.01390495
     atom    7 type  1   force =     0.00004687    0.00000220   -0.01385066
     atom    8 type  1   force =    -0.00003602   -0.00001380   -0.01388297
     atom    9 type  1   force =     0.00050238   -0.00017512    0.01351466
     atom   10 type  1   force =    -0.00022964   -0.00001417    0.01372675
     atom   11 type  1   force =     0.00016996   -0.00011858    0.01399666
     atom   12 type  1   force =    -0.00007776   -0.00001204    0.01385890
     atom   13 type  1   force =    -0.00012299   -0.00000386    0.01370812
     atom   14 type  1   force =     0.00011006    0.00007969    0.01375542
     atom   15 type  1   force =    -0.00003750   -0.00002533    0.01386663
     atom   16 type  1   force =     0.00004861   -0.00006613    0.01392415
     atom   17 type  2   force =     0.00220539    0.00168825    0.00579614
     atom   18 type  2   force =    -0.00016967    0.00006411    0.00453173
     atom   19 type  2   force =     0.00016223   -0.00005555    0.00443995
     atom   20 type  2   force =    -0.00015613   -0.00024988    0.00468826
     atom   21 type  2   force =     0.00002618   -0.00004522    0.00450499
     atom   22 type  2   force =    -0.00003307    0.00000183    0.00454431
     atom   23 type  2   force =     0.00000423    0.00001715    0.00451721
     atom   24 type  2   force =     0.00000194    0.00000966    0.00456180
     atom   25 type  2   force =    -0.00004812   -0.00001895   -0.00455624
     atom   26 type  2   force =    -0.00001686   -0.00012954   -0.00463276
     atom   27 type  2   force =    -0.00019364   -0.00018181   -0.00433372
     atom   28 type  2   force =    -0.00008257    0.00037989   -0.00490184
     atom   29 type  2   force =    -0.00018884    0.00012010   -0.00445309
     atom   30 type  2   force =     0.00009057    0.00002605   -0.00456464
     atom   31 type  2   force =    -0.00001522   -0.00002293   -0.00453388
     atom   32 type  2   force =     0.00001461   -0.00006582   -0.00461558
     atom   33 type  3   force =    -0.00412872   -0.00347504   -0.00073211
     atom   34 type  3   force =    -0.00008734   -0.00125984    0.00016620
     atom   35 type  3   force =    -0.00016882   -0.00121457    0.00017730
     atom   36 type  3   force =    -0.00009086   -0.00117891    0.00019452
     atom   37 type  3   force =    -0.00016904   -0.00125946    0.00019749
     atom   38 type  3   force =    -0.00017241   -0.00126465    0.00019043
     atom   39 type  3   force =    -0.00016090   -0.00127688    0.00017047
     atom   40 type  3   force =    -0.00018460   -0.00129043    0.00014741
     atom   41 type  3   force =    -0.00033795    0.00149890    0.00022541
     atom   42 type  3   force =     0.00009595    0.00206702    0.00037512
     atom   43 type  3   force =    -0.00010381    0.00216131   -0.00005415
     atom   44 type  3   force =    -0.00032805    0.00166870    0.00020428
     atom   45 type  3   force =    -0.00033507    0.00166612    0.00024021
     atom   46 type  3   force =    -0.00033530    0.00168359    0.00022753
     atom   47 type  3   force =    -0.00033497    0.00170463    0.00021536
     atom   48 type  3   force =    -0.00033481    0.00171455    0.00020023
     atom   49 type  3   force =     0.00026432    0.00128516   -0.00020144
     atom   50 type  3   force =     0.00020415    0.00153172    0.00001785
     atom   51 type  3   force =     0.00024737    0.00133879   -0.00014909
     atom   52 type  3   force =     0.00011964    0.00102564   -0.00017181
     atom   53 type  3   force =     0.00011401    0.00120273   -0.00019992
     atom   54 type  3   force =     0.00015802    0.00126179   -0.00015448
     atom   55 type  3   force =     0.00017801    0.00130044   -0.00016535
     atom   56 type  3   force =     0.00018899    0.00131142   -0.00015100
     atom   57 type  3   force =     0.00094454   -0.00164972   -0.00059954
     atom   58 type  3   force =     0.00095732   -0.00169757    0.00014594
     atom   59 type  3   force =     0.00035025   -0.00166098   -0.00023680
     atom   60 type  3   force =     0.00035033   -0.00163815   -0.00026224
     atom   61 type  3   force =     0.00036711   -0.00167255   -0.00020725
     atom   62 type  3   force =     0.00032804   -0.00171067   -0.00018172
     atom   63 type  3   force =     0.00036734   -0.00165522   -0.00024725
     atom   64 type  3   force =     0.00032808   -0.00170545   -0.00021088
     atom   65 type  3   force =    -0.00882512    0.00543760    0.00548978
     atom   66 type  3   force =    -0.00873136    0.00536853    0.00545968
     atom   67 type  3   force =    -0.00882629    0.00537781    0.00562051
     atom   68 type  3   force =    -0.00861749    0.00532134    0.00539925
     atom   69 type  3   force =    -0.00877290    0.00535526    0.00550086
     atom   70 type  3   force =    -0.00847987    0.00538178    0.00510928
     atom   71 type  3   force =    -0.00875938    0.00543155    0.00551350
     atom   72 type  3   force =    -0.00875689    0.00538784    0.00545245
     atom   73 type  3   force =     0.00846358   -0.00512970    0.00547852
     atom   74 type  3   force =     0.00842966   -0.00510006    0.00550739
     atom   75 type  3   force =     0.00836030   -0.00506778    0.00540282
     atom   76 type  3   force =     0.00848670   -0.00515308    0.00553294
     atom   77 type  3   force =     0.00851231   -0.00513869    0.00553776
     atom   78 type  3   force =     0.00833554   -0.00511972    0.00541109
     atom   79 type  3   force =     0.00843492   -0.00508765    0.00549241
     atom   80 type  3   force =     0.00839072   -0.00504155    0.00548128
     atom   81 type  3   force =     0.00883173   -0.00541310   -0.00548982
     atom   82 type  3   force =     0.00785711   -0.00535313   -0.00531392
     atom   83 type  3   force =     0.00885712   -0.00544518   -0.00548762
     atom   84 type  3   force =     0.00852226   -0.00523236   -0.00544108
     atom   85 type  3   force =     0.00875865   -0.00538119   -0.00548837
     atom   86 type  3   force =     0.00872722   -0.00536861   -0.00541455
     atom   87 type  3   force =     0.00875553   -0.00537580   -0.00547487
     atom   88 type  3   force =     0.00874861   -0.00538467   -0.00544802
     atom   89 type  3   force =    -0.00780387    0.00510884   -0.00500058
     atom   90 type  3   force =    -0.00833323    0.00494789   -0.00548511
     atom   91 type  3   force =    -0.00845471    0.00512458   -0.00548883
     atom   92 type  3   force =    -0.00848369    0.00514951   -0.00549593
     atom   93 type  3   force =    -0.00847681    0.00509744   -0.00552703
     atom   94 type  3   force =    -0.00838632    0.00509107   -0.00543999
     atom   95 type  3   force =    -0.00843020    0.00508310   -0.00547847
     atom   96 type  3   force =    -0.00840715    0.00510146   -0.00547503

     Total force =     0.087648     Total SCF correction =     0.000087


     Computing stress (Cartesian axis) and pressure

          total   stress  (Ry/bohr**3)                   (kbar)     P=   40.52
   0.00029069   0.00000130   0.00000006         42.76      0.19      0.01
   0.00000130   0.00026628  -0.00000052          0.19     39.17     -0.08
   0.00000006  -0.00000052   0.00026934          0.01     -0.08     39.62


     init_run     :    107.80s CPU    109.80s WALL (       1 calls)
     electrons    :   4904.10s CPU   4993.09s WALL (       1 calls)
     forces       :     34.47s CPU     34.96s WALL (       1 calls)
     stress       :    301.36s CPU    302.35s WALL (       1 calls)

     Called by init_run:
     wfcinit      :     94.40s CPU     96.08s WALL (       1 calls)
     potinit      :      4.44s CPU      4.47s WALL (       1 calls)

     Called by electrons:
     c_bands      :   4231.90s CPU   4302.13s WALL (      22 calls)
     sum_band     :    636.74s CPU    650.10s WALL (      22 calls)
     v_of_rho     :      8.87s CPU      9.12s WALL (      23 calls)
     newd         :     25.50s CPU     30.87s WALL (      23 calls)
     mix_rho      :      2.31s CPU      2.38s WALL (      22 calls)

     Called by c_bands:
     init_us_2    :     24.62s CPU     24.68s WALL (     188 calls)
     cegterg      :   4159.80s CPU   4229.96s WALL (      88 calls)

     Called by sum_band:
     sum_band:bec :      0.21s CPU      0.20s WALL (      88 calls)
     addusdens    :     36.61s CPU     42.25s WALL (      22 calls)

     Called by *egterg:
     h_psi        :   3069.45s CPU   3112.25s WALL (     361 calls)
     s_psi        :    312.39s CPU    312.39s WALL (     361 calls)
     g_psi        :      5.48s CPU      5.46s WALL (     269 calls)
     cdiaghg      :    131.18s CPU    131.22s WALL (     357 calls)

     Called by h_psi:
     h_psi:pot    :   3052.38s CPU   3094.96s WALL (     361 calls)
     h_psi:calbec :    294.33s CPU    294.53s WALL (     361 calls)
     vloc_psi     :   2444.03s CPU   2486.39s WALL (     361 calls)
     add_vuspsi   :    314.02s CPU    314.03s WALL (     361 calls)

     General routines
     calbec       :    417.27s CPU    417.58s WALL (     469 calls)
     fft          :      7.85s CPU      8.24s WALL (     323 calls)
     fftw         :   2485.16s CPU   2534.75s WALL (  212196 calls)

     Parallel routines
     fft_scatt_xy :    428.34s CPU    428.34s WALL (  212519 calls)
     fft_scatt_yz :    467.65s CPU    495.35s WALL (  212519 calls)

     PWSCF        :     1h29m CPU        1h30m WALL


   This run was terminated on:   1:56:57  28Oct2021            

=------------------------------------------------------------------------------=
   JOB DONE.
=------------------------------------------------------------------------------=
Note: The following floating-point exceptions are signalling: IEEE_DIVIDE_BY_ZERO
Note: The following floating-point exceptions are signalling: IEEE_DIVIDE_BY_ZERO
Note: The following floating-point exceptions are signalling: IEEE_DIVIDE_BY_ZERO
Note: The following floating-point exceptions are signalling: IEEE_DIVIDE_BY_ZERO IEEE_UNDERFLOW_FLAG IEEE_DENORMAL
