
     Program PWSCF v.6.2 (svn rev. 13949:13950) starts on 28Oct2021 at 14:22:51 

     This program is part of the open-source Quantum ESPRESSO suite
     for quantum simulation of materials; please cite
         "P. Giannozzi et al., J. Phys.:Condens. Matter 21 395502 (2009);
         "P. Giannozzi et al., J. Phys.:Condens. Matter 29 465901 (2017);
          URL http://www.quantum-espresso.org", 
     in publications or presentations arising from this work. More details at
     http://www.quantum-espresso.org/quote

     Parallel version (MPI), running on     4 processors

     MPI processes distributed on     1 nodes
     R & G space division:  proc/nbgrp/npool/nimage =       4
     Reading input from headeradd_supercell-016.in

     Current dimensions of program PWSCF are:
     Max number of different atomic species (ntypx) = 10
     Max number of k-points (npk) =  40000
     Max angular momentum in pseudopotentials (lmaxx) =  3
     Message from routine iosys:
     minimal I/O required, wf_collect reset to FALSE
               file Bi.pbe-dn-rrkjus_psl.1.0.0.UPF: wavefunction(s)  5D renormalized
               file O.pbe-rrkjus.UPF: wavefunction(s)  2S renormalized

     Subspace diagonalization in iterative solution of the eigenvalue problem:
     a serial algorithm will be used


     Parallelization info
     --------------------
     sticks:   dense  smooth     PW     G-vecs:    dense   smooth      PW
     Min        2104    2104    550               165101   165101   22036
     Max        2105    2105    551               165102   165102   22038
     Sum        8417    8417   2201               660405   660405   88147



     bravais-lattice index     =            0
     lattice parameter (alat)  =      19.6286  a.u.
     unit-cell volume          =    8346.2129 (a.u.)^3
     number of atoms/cell      =           96
     number of atomic types    =            3
     number of electrons       =       704.00
     number of Kohn-Sham states=          352
     kinetic-energy cutoff     =      70.0000  Ry
     charge density cutoff     =     280.0000  Ry
     convergence threshold     =      1.0E-09
     mixing beta               =       0.7000
     number of iterations used =            8  plain     mixing
     Exchange-correlation      =  SLA  PW   PBE  PBE ( 1  4  3  4 0 0)

     celldm(1)=  19.628585  celldm(2)=   0.000000  celldm(3)=   0.000000
     celldm(4)=   0.000000  celldm(5)=   0.000000  celldm(6)=   0.000000

     crystal axes: (cart. coord. in units of alat)
               a(1) = (   1.000000   0.000000   0.000000 )  
               a(2) = (  -0.006620   0.980010   0.000000 )  
               a(3) = (   0.496690   0.490005   1.126138 )  

     reciprocal axes: (cart. coord. in units 2 pi/alat)
               b(1) = (  1.000000  0.006755 -0.443995 )  
               b(2) = (  0.000000  1.020397 -0.443995 )  
               b(3) = (  0.000000 -0.000000  0.887990 )  


     PseudoPot. # 1 for Bi read from file:
     /home/uezono/pseudo/Bi.pbe-dn-rrkjus_psl.1.0.0.UPF
     MD5 check sum: f9abe7488ae443f53c935a63d0032572
     Pseudo is Ultrasoft + core correction, Zval = 15.0
     Generated using "atomic" code by A. Dal Corso  v.6.2.2
     Using radial grid of 1283 points,  6 beta functions with: 
                l(1) =   0
                l(2) =   0
                l(3) =   1
                l(4) =   1
                l(5) =   2
                l(6) =   2
     Q(r) pseudized with 0 coefficients 


     PseudoPot. # 2 for V  read from file:
     /home/uezono/pseudo/V.pbe-n-van.UPF
     MD5 check sum: ff5646be6093ca757d9525862f4bfff1
     Pseudo is Ultrasoft + core correction, Zval =  5.0
     Generated by new atomic code, or converted to UPF format
     Using radial grid of  853 points,  6 beta functions with: 
                l(1) =   0
                l(2) =   0
                l(3) =   1
                l(4) =   1
                l(5) =   2
                l(6) =   2
     Q(r) pseudized with  8 coefficients,  rinner =    1.000   1.000   1.000
                                                       1.000   1.000

     PseudoPot. # 3 for O  read from file:
     /home/uezono/pseudo/O.pbe-rrkjus.UPF
     MD5 check sum: fadcf19ee70a498d3030e2e79cf929a4
     Pseudo is Ultrasoft, Zval =  6.0
     Generated by new atomic code, or converted to UPF format
     Using radial grid of 1269 points,  4 beta functions with: 
                l(1) =   0
                l(2) =   0
                l(3) =   1
                l(4) =   1
     Q(r) pseudized with 0 coefficients 


     atomic species   valence    mass     pseudopotential
        Bi            15.00   208.98040     Bi( 1.00)
        V              5.00    50.94150     V ( 1.00)
        O              6.00    15.99940     O ( 1.00)

     No symmetry found



   Cartesian axes

     site n.     atom                  positions (alat units)
         1           Bi  tau(   1) = (   0.2475177   0.3675039   0.1503395  )
         2           Bi  tau(   2) = (   0.7475177   0.3675039   0.1503395  )
         3           Bi  tau(   3) = (   0.2442079   0.8575091   0.1503395  )
         4           Bi  tau(   4) = (   0.7442079   0.8575091   0.1503395  )
         5           Bi  tau(   5) = (   0.4958628   0.6125065   0.7134087  )
         6           Bi  tau(   6) = (   0.9958628   0.6125065   0.7134087  )
         7           Bi  tau(   7) = (   0.4925531   1.1025117   0.7134087  )
         8           Bi  tau(   8) = (   0.9925531   1.1025117   0.7134087  )
         9           Bi  tau(   9) = (   0.4975177   0.3675039   0.4127297  )
        10           Bi  tau(  10) = (   0.9975177   0.3675039   0.4127297  )
        11           Bi  tau(  11) = (   0.4942079   0.8575091   0.4127297  )
        12           Bi  tau(  12) = (   0.9942079   0.8575091   0.4127297  )
        13           Bi  tau(  13) = (   0.7458628   0.6125065   0.9757990  )
        14           Bi  tau(  14) = (   1.2458628   0.6125065   0.9757990  )
        15           Bi  tau(  15) = (   0.7425531   1.1025117   0.9757990  )
        16           Bi  tau(  16) = (   1.2425531   1.1025117   0.9757990  )
        17           V   tau(  17) = (   0.4991726   0.1225013   0.1463980  )
        18           V   tau(  18) = (   0.9991726   0.1225013   0.1463980  )
        19           V   tau(  19) = (   0.4958628   0.6125065   0.1463980  )
        20           V   tau(  20) = (   0.9958628   0.6125065   0.1463980  )
        21           V   tau(  21) = (   0.7475177   0.3675039   0.7094672  )
        22           V   tau(  22) = (   1.2475177   0.3675039   0.7094672  )
        23           V   tau(  23) = (   0.7442079   0.8575091   0.7094672  )
        24           V   tau(  24) = (   1.2442079   0.8575091   0.7094672  )
        25           V   tau(  25) = (   0.2458628   0.6125065   0.4166712  )
        26           V   tau(  26) = (   0.7458628   0.6125065   0.4166712  )
        27           V   tau(  27) = (   0.2425531   1.1025117   0.4166712  )
        28           V   tau(  28) = (   0.7425531   1.1025117   0.4166712  )
        29           V   tau(  29) = (   0.4942079   0.8575091   0.9797404  )
        30           V   tau(  30) = (   0.9942079   0.8575091   0.9797404  )
        31           V   tau(  31) = (   0.4908982   1.3475143   0.9797404  )
        32           V   tau(  32) = (   0.9908982   1.3475143   0.9797404  )
        33           O   tau(  33) = (   0.5715696   0.2487756   0.2344620  )
        34           O   tau(  34) = (   1.0715696   0.2487756   0.2344620  )
        35           O   tau(  35) = (   0.5682599   0.7387808   0.2344620  )
        36           O   tau(  36) = (   1.0682599   0.7387808   0.2344620  )
        37           O   tau(  37) = (   0.8199148   0.4937782   0.7975312  )
        38           O   tau(  38) = (   1.3199148   0.4937782   0.7975312  )
        39           O   tau(  39) = (   0.8166050   0.9837834   0.7975312  )
        40           O   tau(  40) = (   1.3166050   0.9837834   0.7975312  )
        41           O   tau(  41) = (   0.4234657   0.4862321   0.2344620  )
        42           O   tau(  42) = (   0.9234657   0.4862321   0.2344620  )
        43           O   tau(  43) = (   0.4201560   0.9762373   0.2344620  )
        44           O   tau(  44) = (   0.9201560   0.9762373   0.2344620  )
        45           O   tau(  45) = (   0.6718109   0.7312347   0.7975312  )
        46           O   tau(  46) = (   1.1718109   0.7312347   0.7975312  )
        47           O   tau(  47) = (   0.6685011   1.2212399   0.7975312  )
        48           O   tau(  48) = (   1.1685011   1.2212399   0.7975312  )
        49           O   tau(  49) = (   0.1734657   0.4862321   0.3286072  )
        50           O   tau(  50) = (   0.6734657   0.4862321   0.3286072  )
        51           O   tau(  51) = (   0.1701560   0.9762373   0.3286072  )
        52           O   tau(  52) = (   0.6701560   0.9762373   0.3286072  )
        53           O   tau(  53) = (   0.4218109   0.7312347   0.8916764  )
        54           O   tau(  54) = (   0.9218109   0.7312347   0.8916764  )
        55           O   tau(  55) = (   0.4185011   1.2212399   0.8916764  )
        56           O   tau(  56) = (   0.9185011   1.2212399   0.8916764  )
        57           O   tau(  57) = (   0.3215696   0.2487756   0.3286072  )
        58           O   tau(  58) = (   0.8215696   0.2487756   0.3286072  )
        59           O   tau(  59) = (   0.3182599   0.7387808   0.3286072  )
        60           O   tau(  60) = (   0.8182599   0.7387808   0.3286072  )
        61           O   tau(  61) = (   0.5699148   0.4937782   0.8916764  )
        62           O   tau(  62) = (   1.0699148   0.4937782   0.8916764  )
        63           O   tau(  63) = (   0.5666050   0.9837834   0.8916764  )
        64           O   tau(  64) = (   1.0666050   0.9837834   0.8916764  )
        65           O   tau(  65) = (   0.6257361   0.6756783   0.5059740  )
        66           O   tau(  66) = (   1.1257292   0.6766972   0.5059740  )
        67           O   tau(  67) = (   0.6224195   1.1667024   0.5059740  )
        68           O   tau(  68) = (   1.1224195   1.1667024   0.5059740  )
        69           O   tau(  69) = (   0.8740744   0.9216998   1.0690432  )
        70           O   tau(  70) = (   1.3740744   0.9216998   1.0690432  )
        71           O   tau(  71) = (   0.8707646   1.4117049   1.0690432  )
        72           O   tau(  72) = (   1.3707646   1.4117049   1.0690432  )
        73           O   tau(  73) = (   0.3659964   0.5483158   0.5059740  )
        74           O   tau(  74) = (   0.8659964   0.5483158   0.5059740  )
        75           O   tau(  75) = (   0.3626866   1.0383210   0.5059740  )
        76           O   tau(  76) = (   0.8626866   1.0383210   0.5059740  )
        77           O   tau(  77) = (   0.6143415   0.7933184   1.0690432  )
        78           O   tau(  78) = (   1.1143415   0.7933184   1.0690432  )
        79           O   tau(  79) = (   0.6110318   1.2833236   1.0690432  )
        80           O   tau(  80) = (   1.1110318   1.2833236   1.0690432  )
        81           O   tau(  81) = (   0.1193061   0.0583106   0.0570952  )
        82           O   tau(  82) = (   0.6193061   0.0583106   0.0570952  )
        83           O   tau(  83) = (   0.1159964   0.5483158   0.0570952  )
        84           O   tau(  84) = (   0.6159964   0.5483158   0.0570952  )
        85           O   tau(  85) = (   0.3676513   0.3033132   0.6201644  )
        86           O   tau(  86) = (   0.8676513   0.3033132   0.6201644  )
        87           O   tau(  87) = (   0.3643415   0.7933184   0.6201644  )
        88           O   tau(  88) = (   0.8643415   0.7933184   0.6201644  )
        89           O   tau(  89) = (   0.3790390   0.1866920   0.0570952  )
        90           O   tau(  90) = (   0.8790390   0.1866920   0.0570952  )
        91           O   tau(  91) = (   0.3757292   0.6766972   0.0570952  )
        92           O   tau(  92) = (   0.8757292   0.6766972   0.0570952  )
        93           O   tau(  93) = (   0.6273841   0.4316946   0.6201644  )
        94           O   tau(  94) = (   1.1273841   0.4316946   0.6201644  )
        95           O   tau(  95) = (   0.6240744   0.9216998   0.6201644  )
        96           O   tau(  96) = (   1.1240744   0.9216998   0.6201644  )

     number of k points=     4
                       cart. coord. in units 2pi/alat
        k(    1) = (   0.2500000   0.2567880   0.0000000), wk =   0.5000000
        k(    2) = (   0.2500000   0.2567880  -0.4439951), wk =   0.5000000
        k(    3) = (   0.2500000  -0.2534107   0.2219976), wk =   0.5000000
        k(    4) = (  -0.2500000   0.2534107   0.2219976), wk =   0.5000000

     Dense  grid:   660405 G-vectors     FFT dimensions: ( 108, 108, 144)

     Estimated max dynamical RAM per process >       2.39 GB

     Estimated total dynamical RAM >       9.55 GB

     Initial potential from superposition of free atoms

     starting charge  703.96725, renormalised to  704.00000
     Starting wfc are  544 randomized atomic wfcs

     total cpu time spent up to now is      110.5 secs

     Self-consistent Calculation

     iteration #  1     ecut=    70.00 Ry     beta= 0.70
     Davidson diagonalization with overlap
     ethr =  1.00E-02,  avg # of iterations =  1.0

     total cpu time spent up to now is      270.4 secs

     total energy              =   -4949.31313981 Ry
     Harris-Foulkes estimate   =   -4981.29948266 Ry
     estimated scf accuracy    <      40.93943879 Ry

     iteration #  2     ecut=    70.00 Ry     beta= 0.70
     Davidson diagonalization with overlap
     ethr =  5.82E-03,  avg # of iterations =  4.0

     total cpu time spent up to now is      563.6 secs

     total energy              =   -4901.64052607 Ry
     Harris-Foulkes estimate   =   -5036.14645972 Ry
     estimated scf accuracy    <     570.62484721 Ry

     iteration #  3     ecut=    70.00 Ry     beta= 0.70
     Davidson diagonalization with overlap
     ethr =  5.82E-03,  avg # of iterations =  6.2

     total cpu time spent up to now is      868.2 secs

     total energy              =   -4970.00045228 Ry
     Harris-Foulkes estimate   =   -4977.38034250 Ry
     estimated scf accuracy    <      23.90433476 Ry

     iteration #  4     ecut=    70.00 Ry     beta= 0.70
     Davidson diagonalization with overlap
     ethr =  3.40E-03,  avg # of iterations =  2.0

     total cpu time spent up to now is     1066.1 secs

     total energy              =   -4972.11226221 Ry
     Harris-Foulkes estimate   =   -4972.74507815 Ry
     estimated scf accuracy    <       4.39406040 Ry

     iteration #  5     ecut=    70.00 Ry     beta= 0.70
     Davidson diagonalization with overlap
     ethr =  6.24E-04,  avg # of iterations =  2.0

     total cpu time spent up to now is     1231.2 secs

     total energy              =   -4971.79047576 Ry
     Harris-Foulkes estimate   =   -4972.31607270 Ry
     estimated scf accuracy    <       2.09110137 Ry

     iteration #  6     ecut=    70.00 Ry     beta= 0.70
     Davidson diagonalization with overlap
     ethr =  2.97E-04,  avg # of iterations =  3.0

     total cpu time spent up to now is     1437.0 secs

     total energy              =   -4972.08175425 Ry
     Harris-Foulkes estimate   =   -4972.11823483 Ry
     estimated scf accuracy    <       0.06366990 Ry

     iteration #  7     ecut=    70.00 Ry     beta= 0.70
     Davidson diagonalization with overlap
     ethr =  9.04E-06,  avg # of iterations =  4.0

     total cpu time spent up to now is     1698.8 secs

     total energy              =   -4972.08462564 Ry
     Harris-Foulkes estimate   =   -4972.12811918 Ry
     estimated scf accuracy    <       0.11767963 Ry

     iteration #  8     ecut=    70.00 Ry     beta= 0.70
     Davidson diagonalization with overlap
     ethr =  9.04E-06,  avg # of iterations =  3.0

     total cpu time spent up to now is     1943.5 secs

     total energy              =   -4972.10383105 Ry
     Harris-Foulkes estimate   =   -4972.11630482 Ry
     estimated scf accuracy    <       0.05671204 Ry

     iteration #  9     ecut=    70.00 Ry     beta= 0.70
     Davidson diagonalization with overlap
     ethr =  8.06E-06,  avg # of iterations =  3.0

     total cpu time spent up to now is     2162.9 secs

     total energy              =   -4972.10798836 Ry
     Harris-Foulkes estimate   =   -4972.11379320 Ry
     estimated scf accuracy    <       0.02936453 Ry

     iteration # 10     ecut=    70.00 Ry     beta= 0.70
     Davidson diagonalization with overlap
     ethr =  4.17E-06,  avg # of iterations =  2.2

     total cpu time spent up to now is     2336.9 secs

     total energy              =   -4972.10803779 Ry
     Harris-Foulkes estimate   =   -4972.10999452 Ry
     estimated scf accuracy    <       0.00667432 Ry

     iteration # 11     ecut=    70.00 Ry     beta= 0.70
     Davidson diagonalization with overlap
     ethr =  9.48E-07,  avg # of iterations =  3.0

     total cpu time spent up to now is     2547.0 secs

     total energy              =   -4972.10919408 Ry
     Harris-Foulkes estimate   =   -4972.10923784 Ry
     estimated scf accuracy    <       0.00018082 Ry

     iteration # 12     ecut=    70.00 Ry     beta= 0.70
     Davidson diagonalization with overlap
     ethr =  2.57E-08,  avg # of iterations =  3.8

     total cpu time spent up to now is     2794.4 secs

     total energy              =   -4972.10920061 Ry
     Harris-Foulkes estimate   =   -4972.10926927 Ry
     estimated scf accuracy    <       0.00026275 Ry

     iteration # 13     ecut=    70.00 Ry     beta= 0.70
     Davidson diagonalization with overlap
     ethr =  2.57E-08,  avg # of iterations =  3.0

     total cpu time spent up to now is     3017.0 secs

     total energy              =   -4972.10922336 Ry
     Harris-Foulkes estimate   =   -4972.10923655 Ry
     estimated scf accuracy    <       0.00004973 Ry

     iteration # 14     ecut=    70.00 Ry     beta= 0.70
     Davidson diagonalization with overlap
     ethr =  7.06E-09,  avg # of iterations =  3.0

     total cpu time spent up to now is     3230.1 secs

     total energy              =   -4972.10922902 Ry
     Harris-Foulkes estimate   =   -4972.10923066 Ry
     estimated scf accuracy    <       0.00000478 Ry

     iteration # 15     ecut=    70.00 Ry     beta= 0.70
     Davidson diagonalization with overlap
     ethr =  6.79E-10,  avg # of iterations =  3.0

     total cpu time spent up to now is     3470.9 secs

     total energy              =   -4972.10922937 Ry
     Harris-Foulkes estimate   =   -4972.10923066 Ry
     estimated scf accuracy    <       0.00000443 Ry

     iteration # 16     ecut=    70.00 Ry     beta= 0.70
     Davidson diagonalization with overlap
     ethr =  6.30E-10,  avg # of iterations =  3.0

     total cpu time spent up to now is     3682.9 secs

     total energy              =   -4972.10922994 Ry
     Harris-Foulkes estimate   =   -4972.10923006 Ry
     estimated scf accuracy    <       0.00000027 Ry

     iteration # 17     ecut=    70.00 Ry     beta= 0.70
     Davidson diagonalization with overlap
     ethr =  3.90E-11,  avg # of iterations =  3.2

     total cpu time spent up to now is     3937.5 secs

     total energy              =   -4972.10922997 Ry
     Harris-Foulkes estimate   =   -4972.10923012 Ry
     estimated scf accuracy    <       0.00000063 Ry

     iteration # 18     ecut=    70.00 Ry     beta= 0.70
     Davidson diagonalization with overlap
     ethr =  3.90E-11,  avg # of iterations =  3.0

     total cpu time spent up to now is     4174.6 secs

     total energy              =   -4972.10923003 Ry
     Harris-Foulkes estimate   =   -4972.10923005 Ry
     estimated scf accuracy    <       0.00000003 Ry

     iteration # 19     ecut=    70.00 Ry     beta= 0.70
     Davidson diagonalization with overlap
     ethr =  4.96E-12,  avg # of iterations =  3.0

     total cpu time spent up to now is     4403.6 secs

     total energy              =   -4972.10923004 Ry
     Harris-Foulkes estimate   =   -4972.10923004 Ry
     estimated scf accuracy    <          7.2E-09 Ry

     iteration # 20     ecut=    70.00 Ry     beta= 0.70
     Davidson diagonalization with overlap
     ethr =  1.03E-12,  avg # of iterations =  3.0

     total cpu time spent up to now is     4646.6 secs

     total energy              =   -4972.10923004 Ry
     Harris-Foulkes estimate   =   -4972.10923004 Ry
     estimated scf accuracy    <       0.00000001 Ry

     iteration # 21     ecut=    70.00 Ry     beta= 0.70
     Davidson diagonalization with overlap
     ethr =  1.03E-12,  avg # of iterations =  3.0

     total cpu time spent up to now is     4881.0 secs

     total energy              =   -4972.10923004 Ry
     Harris-Foulkes estimate   =   -4972.10923004 Ry
     estimated scf accuracy    <          1.3E-09 Ry

     iteration # 22     ecut=    70.00 Ry     beta= 0.70
     Davidson diagonalization with overlap
     ethr =  1.87E-13,  avg # of iterations =  3.0

     total cpu time spent up to now is     5113.3 secs

     End of self-consistent calculation

          k = 0.2500 0.2568 0.0000 ( 82568 PWs)   bands (ev):

   -14.4888 -14.4869 -14.4867 -14.4848 -14.4840 -14.4830 -14.4825 -14.4821
   -14.4781 -14.4696 -14.4684 -14.4676 -14.4639 -14.4635 -14.4581 -14.4578
   -14.4519 -14.4516 -14.4484 -14.4367 -14.4340 -14.4310 -14.4309 -14.4254
   -14.4237 -14.4130 -14.4126 -14.4072 -14.4058 -14.4050 -14.4044 -14.4030
   -14.4023 -14.3997 -14.3984 -14.3981 -14.3973 -14.3970 -14.3952 -14.3949
   -14.3942 -14.3930 -14.3926 -14.3921 -14.3916 -14.3906 -14.3896 -14.3894
   -14.3878 -14.3863 -14.3840 -14.3839 -14.3813 -14.3812 -14.3801 -14.3798
   -14.3788 -14.3742 -14.3740 -14.3702 -14.3682 -14.3679 -14.3640 -14.3619
   -14.3603 -14.3595 -14.3594 -14.3581 -14.3564 -14.3535 -14.3523 -14.3513
   -14.3510 -14.3487 -14.3485 -14.3462 -14.3460 -14.3418 -14.3416 -14.3366
   -10.4957 -10.2961 -10.1661 -10.1656 -10.1203 -10.1198  -9.9299  -9.8054
    -9.6778  -9.6047  -9.6043  -9.5996  -9.5994  -9.5450  -9.4695  -9.3937
    -9.3596  -9.3212  -9.3206  -9.3145  -9.3026  -9.2803  -9.2797  -9.2522
    -9.2429  -9.1711  -9.1484  -9.1141  -9.1135  -9.0840  -9.0834  -9.0661
    -9.0636  -9.0421  -9.0402  -9.0397  -8.9742  -8.9738  -8.9536  -8.9455
    -8.9344  -8.9340  -8.9247  -8.8990  -8.8917  -8.8912  -8.8891  -8.8632
    -8.8256  -8.8245  -8.8241  -8.8221  -8.8212  -8.8049  -8.7842  -8.7834
    -8.7766  -8.7532  -8.7143  -8.7046  -8.7042  -8.6865  -8.6859  -8.6588
    -2.2088  -2.0743  -2.0740  -1.9658  -1.9019  -1.9017  -1.8936  -1.7951
    -1.5982  -1.5526  -1.5521  -1.5041  -1.4727  -1.3589  -1.3586  -1.3054
     2.4198   2.4642   2.4987   2.4990   2.5541   2.5544   2.6748   2.7354
     2.7357   2.7411   2.7506   2.7517   2.7649   2.7709   2.7754   2.8354
     2.8358   2.9410   2.9520   2.9761   2.9763   3.0042   3.1130   3.1807
     3.1808   3.2213   3.2519   3.2523   3.2812   3.3614   3.3861   3.3866
     3.4145   3.4219   3.4222   3.5346   3.5348   3.6264   3.6427   3.7115
     3.7119   3.7690   3.7758   3.7910   3.8967   3.8977   3.8983   3.9696
     3.9955   4.0185   4.0276   4.0419   4.0429   4.0435   4.0440   4.1460
     4.1865   4.2083   4.2092   4.2361   4.2398   4.2403   4.2449   4.2677
     4.2849   4.2853   4.3005   4.3517   4.3650   4.3688   4.3699   4.3765
     4.3824   4.3831   4.4050   4.4081   4.4418   4.4867   4.4936   4.4937
     4.5358   4.5378   4.6138   4.6348   4.6355   4.6440   4.6445   4.6728
     4.6733   4.6800   4.6962   4.6999   4.7135   4.7220   4.7671   4.7702
     4.7708   4.8413   4.8611   4.8619   4.9196   4.9340   5.0017   5.0077
     5.0081   5.0562   5.0567   5.0932   5.0935   5.1130   5.1231   5.1238
     5.1457   5.1461   5.2145   5.2737   5.2869   5.2875   5.2879   5.3621
     5.3685   5.3689   5.3937   5.3977   5.4237   5.5200   5.5207   5.5457
     5.6496   5.7455   5.7460   5.7519   5.8377   5.8537   5.8545   5.8699
     5.8907   5.9896   5.9927   5.9933   6.0029   6.0649   6.0653   6.1331
     6.1356   6.1558   6.2482   6.2717   6.2718   6.2736   6.2746   6.2750
     6.2850   6.2858   6.2955   6.4120   6.4128   6.4135   6.4197   6.4235
     6.4646   6.4650   6.4739   6.4746   6.4924   6.5826   6.5898   6.5903
     6.6963   6.6973   6.7261   6.7914   6.7918   6.7953   6.8121   6.8677
     6.8740   6.8786   6.8798   6.9327   6.9424   6.9468   6.9474   6.9904
     6.9905   7.0635   7.1484   7.2886   7.2889   7.3689   7.3696   7.4771

          k = 0.2500 0.2568-0.4440 ( 82488 PWs)   bands (ev):

   -14.4889 -14.4872 -14.4862 -14.4846 -14.4844 -14.4839 -14.4835 -14.4787
   -14.4757 -14.4734 -14.4732 -14.4611 -14.4585 -14.4569 -14.4566 -14.4562
   -14.4534 -14.4528 -14.4524 -14.4497 -14.4355 -14.4319 -14.4318 -14.4233
   -14.4209 -14.4163 -14.4160 -14.4143 -14.4081 -14.4066 -14.4037 -14.4036
   -14.4005 -14.4002 -14.3986 -14.3976 -14.3972 -14.3969 -14.3965 -14.3956
   -14.3941 -14.3928 -14.3918 -14.3913 -14.3906 -14.3891 -14.3889 -14.3858
   -14.3852 -14.3843 -14.3836 -14.3829 -14.3800 -14.3760 -14.3756 -14.3728
   -14.3723 -14.3716 -14.3709 -14.3704 -14.3701 -14.3693 -14.3691 -14.3681
   -14.3628 -14.3617 -14.3614 -14.3568 -14.3544 -14.3539 -14.3536 -14.3518
   -14.3513 -14.3497 -14.3491 -14.3484 -14.3478 -14.3417 -14.3415 -14.3361
   -10.4122 -10.4118 -10.2239 -10.1945 -10.0983 -10.0188  -9.8742  -9.8736
    -9.6767  -9.6003  -9.5593  -9.5145  -9.5086  -9.5080  -9.4911  -9.4906
    -9.4419  -9.4402  -9.3929  -9.3926  -9.2305  -9.2246  -9.2241  -9.1946
    -9.1942  -9.1699  -9.1693  -9.1522  -9.1420  -9.1384  -9.1234  -9.0858
    -9.0664  -9.0661  -9.0501  -8.9817  -8.9743  -8.9638  -8.9096  -8.9079
    -8.9003  -8.8996  -8.8942  -8.8891  -8.8886  -8.8803  -8.8758  -8.8754
    -8.8530  -8.8406  -8.8308  -8.8305  -8.8164  -8.8155  -8.8007  -8.7860
    -8.7853  -8.7647  -8.7194  -8.6977  -8.6925  -8.6851  -8.6847  -8.6824
    -2.1227  -2.0992  -2.0991  -2.0229  -1.9818  -1.8515  -1.8511  -1.7734
    -1.6575  -1.5443  -1.5439  -1.4959  -1.3902  -1.3774  -1.3771  -1.3306
     2.4967   2.5000   2.5658   2.5690   2.5694   2.5717   2.6231   2.6615
     2.6619   2.7257   2.7260   2.7516   2.7518   2.7766   2.8681   2.8699
     2.8701   2.8738   2.8784   2.8788   2.9147   3.0339   3.0925   3.1337
     3.1398   3.1401   3.2571   3.2599   3.2721   3.2856   3.2978   3.2980
     3.3721   3.4346   3.4614   3.4620   3.6027   3.6032   3.6716   3.7703
     3.7987   3.8286   3.9025   3.9034   3.9857   3.9864   4.0146   4.0362
     4.0471   4.0660   4.0842   4.0932   4.1180   4.1183   4.1497   4.1700
     4.1707   4.2038   4.2222   4.2226   4.2229   4.2364   4.2643   4.2850
     4.2852   4.2963   4.2982   4.2987   4.3192   4.3394   4.3398   4.3422
     4.4063   4.4312   4.4316   4.4339   4.4726   4.4736   4.4742   4.4782
     4.4813   4.4814   4.5268   4.5327   4.5515   4.5518   4.6017   4.6250
     4.6255   4.6412   4.6863   4.6867   4.7301   4.7925   4.8222   4.8230
     4.8314   4.8324   4.8642   4.8784   4.8786   4.8856   4.8862   4.8975
     4.8980   4.9913   5.0361   5.0366   5.0929   5.1055   5.1166   5.1533
     5.1653   5.1655   5.2045   5.2260   5.2458   5.2462   5.2547   5.2750
     5.3075   5.3364   5.3368   5.4452   5.4710   5.5705   5.5710   5.6568
     5.7135   5.7954   5.7997   5.8005   5.8117   5.8863   5.8869   5.9157
     5.9795   6.0125   6.0306   6.0312   6.0559   6.0658   6.0674   6.0677
     6.1157   6.1609   6.1699   6.1701   6.1876   6.2019   6.2027   6.2752
     6.3440   6.3545   6.3557   6.4016   6.4022   6.4097   6.4913   6.4917
     6.5013   6.5125   6.5235   6.5264   6.5772   6.5874   6.6173   6.6367
     6.6373   6.6574   6.6859   6.6862   6.7872   6.7881   6.8018   6.8023
     6.8249   6.8809   6.8810   6.9348   6.9356   6.9551   6.9555   6.9715
     7.0241   7.0309   7.0886   7.1802   7.3434   7.3441   7.4395   7.5543

          k = 0.2500-0.2534 0.2220 ( 82555 PWs)   bands (ev):

   -14.4890 -14.4872 -14.4859 -14.4855 -14.4853 -14.4841 -14.4830 -14.4781
   -14.4755 -14.4733 -14.4711 -14.4638 -14.4616 -14.4597 -14.4594 -14.4571
   -14.4546 -14.4510 -14.4480 -14.4428 -14.4359 -14.4313 -14.4289 -14.4259
   -14.4226 -14.4154 -14.4126 -14.4095 -14.4079 -14.4075 -14.4058 -14.4039
   -14.4010 -14.3989 -14.3981 -14.3975 -14.3969 -14.3965 -14.3955 -14.3947
   -14.3939 -14.3924 -14.3922 -14.3908 -14.3904 -14.3900 -14.3896 -14.3891
   -14.3873 -14.3854 -14.3843 -14.3837 -14.3831 -14.3796 -14.3766 -14.3748
   -14.3742 -14.3731 -14.3716 -14.3715 -14.3700 -14.3683 -14.3660 -14.3653
   -14.3621 -14.3611 -14.3575 -14.3569 -14.3562 -14.3550 -14.3529 -14.3510
   -14.3506 -14.3500 -14.3490 -14.3473 -14.3471 -14.3413 -14.3406 -14.3370
   -10.4778 -10.3425 -10.2009 -10.1567 -10.1061 -10.0289  -9.9441  -9.8708
    -9.6905  -9.6131  -9.6076  -9.5885  -9.5734  -9.4716  -9.4146  -9.4078
    -9.4068  -9.3901  -9.3831  -9.3603  -9.2469  -9.2335  -9.2225  -9.2014
    -9.1966  -9.1780  -9.1652  -9.1334  -9.1212  -9.1186  -9.1111  -9.1103
    -9.0625  -9.0583  -9.0572  -9.0237  -9.0215  -9.0100  -8.9361  -8.9355
    -8.9318  -8.9145  -8.9139  -8.8897  -8.8862  -8.8853  -8.8486  -8.8479
    -8.8420  -8.8399  -8.8078  -8.7963  -8.7953  -8.7842  -8.7831  -8.7720
    -8.7686  -8.7634  -8.7590  -8.7325  -8.7102  -8.7048  -8.6763  -8.6494
    -2.1763  -2.1135  -2.0313  -2.0122  -1.9599  -1.8804  -1.8251  -1.8188
    -1.6238  -1.5604  -1.5198  -1.5111  -1.4291  -1.3971  -1.3352  -1.3236
     2.4309   2.4817   2.5236   2.5560   2.5780   2.5803   2.5824   2.6380
     2.6913   2.7008   2.7260   2.7408   2.7828   2.7905   2.8050   2.8413
     2.8419   2.8597   3.0156   3.0337   3.0566   3.0830   3.1173   3.1268
     3.1430   3.1920   3.1944   3.2116   3.2341   3.2543   3.3122   3.3725
     3.5131   3.5256   3.5413   3.5498   3.5762   3.6006   3.6509   3.6562
     3.6880   3.6968   3.8615   3.8731   3.9118   3.9334   3.9454   3.9525
     3.9849   3.9864   4.0114   4.0482   4.0981   4.1147   4.1282   4.1407
     4.1480   4.1953   4.2020   4.2054   4.2121   4.2314   4.2338   4.2422
     4.2491   4.2521   4.2942   4.3077   4.3408   4.3550   4.3567   4.3827
     4.4240   4.4268   4.4330   4.4451   4.4531   4.4686   4.4969   4.5298
     4.5392   4.5400   4.5412   4.5652   4.5727   4.6683   4.6691   4.6828
     4.6889   4.7130   4.7348   4.7377   4.7498   4.7530   4.7570   4.7638
     4.7915   4.7976   4.8719   4.8756   4.8777   4.9040   4.9324   4.9652
     4.9769   4.9995   5.0318   5.0495   5.0931   5.0953   5.1239   5.1777
     5.1857   5.2027   5.2301   5.2569   5.2663   5.2687   5.2963   5.3007
     5.3747   5.3763   5.4496   5.4658   5.5044   5.5403   5.5436   5.6072
     5.6759   5.6877   5.6930   5.7129   5.7214   5.7489   5.8083   5.8544
     5.8893   5.9408   5.9613   5.9762   5.9879   6.0377   6.0480   6.1432
     6.1514   6.2002   6.2276   6.2529   6.2728   6.2747   6.2801   6.3117
     6.3352   6.3530   6.3580   6.3777   6.4238   6.4332   6.4334   6.4787
     6.4792   6.5015   6.5550   6.5677   6.6153   6.6213   6.6619   6.6652
     6.6909   6.6918   6.6936   6.7220   6.7262   6.7315   6.7480   6.7899
     6.8301   6.8700   6.8876   6.9215   6.9378   6.9423   6.9568   6.9793
     6.9815   7.0792   7.1199   7.2379   7.2881   7.3052   7.4631   7.4679

          k =-0.2500 0.2534 0.2220 ( 82555 PWs)   bands (ev):

   -14.4890 -14.4871 -14.4860 -14.4856 -14.4851 -14.4841 -14.4830 -14.4781
   -14.4755 -14.4732 -14.4712 -14.4638 -14.4615 -14.4599 -14.4593 -14.4572
   -14.4546 -14.4511 -14.4479 -14.4428 -14.4359 -14.4312 -14.4290 -14.4259
   -14.4226 -14.4155 -14.4125 -14.4095 -14.4079 -14.4073 -14.4059 -14.4038
   -14.4011 -14.3988 -14.3981 -14.3975 -14.3970 -14.3965 -14.3956 -14.3946
   -14.3939 -14.3925 -14.3921 -14.3909 -14.3904 -14.3900 -14.3896 -14.3890
   -14.3874 -14.3855 -14.3841 -14.3836 -14.3833 -14.3797 -14.3764 -14.3750
   -14.3742 -14.3730 -14.3716 -14.3716 -14.3699 -14.3682 -14.3660 -14.3653
   -14.3620 -14.3611 -14.3577 -14.3568 -14.3562 -14.3551 -14.3527 -14.3513
   -14.3505 -14.3501 -14.3488 -14.3474 -14.3471 -14.3413 -14.3406 -14.3370
   -10.4778 -10.3425 -10.2009 -10.1567 -10.1060 -10.0290  -9.9441  -9.8708
    -9.6905  -9.6131  -9.6076  -9.5884  -9.5734  -9.4715  -9.4145  -9.4079
    -9.4068  -9.3900  -9.3831  -9.3603  -9.2468  -9.2337  -9.2228  -9.2015
    -9.1966  -9.1780  -9.1654  -9.1332  -9.1211  -9.1186  -9.1109  -9.1105
    -9.0626  -9.0575  -9.0570  -9.0236  -9.0224  -9.0101  -8.9365  -8.9358
    -8.9314  -8.9146  -8.9138  -8.8893  -8.8863  -8.8852  -8.8488  -8.8478
    -8.8418  -8.8399  -8.8079  -8.7961  -8.7948  -8.7846  -8.7834  -8.7724
    -8.7683  -8.7633  -8.7590  -8.7326  -8.7102  -8.7048  -8.6763  -8.6494
    -2.1762  -2.1133  -2.0315  -2.0123  -1.9599  -1.8806  -1.8250  -1.8185
    -1.6240  -1.5607  -1.5196  -1.5110  -1.4290  -1.3968  -1.3354  -1.3237
     2.4309   2.4818   2.5237   2.5559   2.5779   2.5804   2.5823   2.6382
     2.6912   2.7007   2.7257   2.7410   2.7827   2.7905   2.8052   2.8414
     2.8421   2.8596   3.0157   3.0335   3.0565   3.0831   3.1172   3.1265
     3.1425   3.1921   3.1944   3.2115   3.2337   3.2543   3.3123   3.3726
     3.5128   3.5261   3.5409   3.5500   3.5760   3.6007   3.6512   3.6570
     3.6878   3.6969   3.8618   3.8731   3.9120   3.9339   3.9452   3.9523
     3.9848   3.9865   4.0117   4.0483   4.0981   4.1147   4.1274   4.1409
     4.1481   4.1955   4.2014   4.2054   4.2121   4.2315   4.2340   4.2418
     4.2491   4.2523   4.2941   4.3077   4.3411   4.3550   4.3570   4.3830
     4.4239   4.4267   4.4329   4.4450   4.4526   4.4682   4.4971   4.5299
     4.5391   4.5404   4.5414   4.5653   4.5725   4.6685   4.6690   4.6829
     4.6887   4.7130   4.7350   4.7385   4.7498   4.7526   4.7570   4.7636
     4.7916   4.7979   4.8715   4.8749   4.8776   4.9047   4.9327   4.9653
     4.9765   4.9993   5.0316   5.0503   5.0930   5.0953   5.1233   5.1780
     5.1852   5.2027   5.2301   5.2566   5.2665   5.2688   5.2963   5.3009
     5.3743   5.3766   5.4497   5.4656   5.5038   5.5399   5.5447   5.6071
     5.6763   5.6878   5.6922   5.7127   5.7219   5.7495   5.8082   5.8537
     5.8891   5.9405   5.9610   5.9760   5.9889   6.0376   6.0483   6.1432
     6.1512   6.2005   6.2278   6.2531   6.2726   6.2747   6.2797   6.3115
     6.3352   6.3531   6.3586   6.3778   6.4240   6.4330   6.4339   6.4787
     6.4795   6.5014   6.5545   6.5680   6.6149   6.6210   6.6617   6.6652
     6.6913   6.6919   6.6935   6.7218   6.7264   6.7315   6.7480   6.7898
     6.8302   6.8700   6.8874   6.9217   6.9377   6.9424   6.9566   6.9790
     6.9816   7.0793   7.1201   7.2382   7.2878   7.3050   7.4632   7.4681

     highest occupied level (ev):     7.5543

!    total energy              =   -4972.10923004 Ry
     Harris-Foulkes estimate   =   -4972.10923004 Ry
     estimated scf accuracy    <          7.6E-10 Ry

     The total energy is the sum of the following terms:

     one-electron contribution =   -1193.11074374 Ry
     hartree contribution      =    1074.13588379 Ry
     xc contribution           =   -1297.70271774 Ry
     ewald contribution        =   -3555.43165236 Ry

     convergence has been achieved in  22 iterations

     Forces acting on atoms (cartesian axes, Ry/au):

     atom    1 type  1   force =    -0.00003393    0.00002936   -0.01386113
     atom    2 type  1   force =    -0.00002734    0.00016428   -0.01365856
     atom    3 type  1   force =    -0.00009617   -0.00004133   -0.01391801
     atom    4 type  1   force =     0.00013621   -0.00010278   -0.01375919
     atom    5 type  1   force =    -0.00010472   -0.00025983   -0.01369139
     atom    6 type  1   force =    -0.00009075   -0.00011938   -0.01397873
     atom    7 type  1   force =    -0.00001196    0.00012923   -0.01377331
     atom    8 type  1   force =    -0.00000336    0.00006485   -0.01386655
     atom    9 type  1   force =     0.00026051    0.00022805    0.01386363
     atom   10 type  1   force =    -0.00015728    0.00017867    0.01393331
     atom   11 type  1   force =    -0.00024767    0.00014024    0.01349732
     atom   12 type  1   force =    -0.00013331   -0.00011366    0.01375889
     atom   13 type  1   force =     0.00001789   -0.00005296    0.01386030
     atom   14 type  1   force =     0.00001576    0.00000187    0.01386640
     atom   15 type  1   force =    -0.00002203    0.00003577    0.01387883
     atom   16 type  1   force =     0.00000484    0.00000413    0.01389092
     atom   17 type  2   force =     0.00015796    0.00020622    0.00445724
     atom   18 type  2   force =    -0.00004265    0.00002541    0.00453761
     atom   19 type  2   force =     0.00000718   -0.00014440    0.00453466
     atom   20 type  2   force =    -0.00008956   -0.00003631    0.00460558
     atom   21 type  2   force =    -0.00010847    0.00014321    0.00435596
     atom   22 type  2   force =    -0.00001974    0.00001768    0.00453745
     atom   23 type  2   force =     0.00025718    0.00004021    0.00484855
     atom   24 type  2   force =    -0.00009210    0.00000847    0.00460180
     atom   25 type  2   force =    -0.00007634   -0.00010680   -0.00446074
     atom   26 type  2   force =     0.00243960   -0.00259503   -0.00643945
     atom   27 type  2   force =    -0.00021356    0.00010331   -0.00465280
     atom   28 type  2   force =     0.00007161    0.00014572   -0.00453517
     atom   29 type  2   force =    -0.00004297   -0.00001029   -0.00450443
     atom   30 type  2   force =     0.00002437   -0.00000977   -0.00452440
     atom   31 type  2   force =     0.00000473    0.00001521   -0.00453345
     atom   32 type  2   force =     0.00001657    0.00000236   -0.00456251
     atom   33 type  3   force =    -0.00022329   -0.00138504    0.00010759
     atom   34 type  3   force =    -0.00015570   -0.00130164    0.00013826
     atom   35 type  3   force =    -0.00016372   -0.00117932    0.00033387
     atom   36 type  3   force =    -0.00010821   -0.00124041    0.00017129
     atom   37 type  3   force =    -0.00014222   -0.00121858    0.00024134
     atom   38 type  3   force =    -0.00016712   -0.00127959    0.00016642
     atom   39 type  3   force =    -0.00021792   -0.00135071    0.00010427
     atom   40 type  3   force =    -0.00017418   -0.00129018    0.00014962
     atom   41 type  3   force =    -0.00036451    0.00172928    0.00017088
     atom   42 type  3   force =    -0.00027878    0.00171401    0.00014271
     atom   43 type  3   force =    -0.00030296    0.00139645    0.00064434
     atom   44 type  3   force =    -0.00033163    0.00171435    0.00021182
     atom   45 type  3   force =    -0.00031242    0.00177315    0.00008670
     atom   46 type  3   force =    -0.00029329    0.00174921    0.00020014
     atom   47 type  3   force =    -0.00038961    0.00159739    0.00026328
     atom   48 type  3   force =    -0.00034452    0.00168860    0.00021003
     atom   49 type  3   force =     0.00020003    0.00131127   -0.00015797
     atom   50 type  3   force =     0.00013902    0.00061591   -0.00076757
     atom   51 type  3   force =     0.00023208    0.00134376   -0.00016002
     atom   52 type  3   force =     0.00002018    0.00120916   -0.00013031
     atom   53 type  3   force =     0.00016884    0.00131062   -0.00013929
     atom   54 type  3   force =     0.00015611    0.00129911   -0.00016246
     atom   55 type  3   force =     0.00016338    0.00125672   -0.00019601
     atom   56 type  3   force =     0.00017237    0.00126680   -0.00016788
     atom   57 type  3   force =     0.00028342   -0.00178113   -0.00020276
     atom   58 type  3   force =     0.00030875   -0.00177740   -0.00018584
     atom   59 type  3   force =     0.00048436   -0.00149422   -0.00020326
     atom   60 type  3   force =     0.00032528   -0.00082391   -0.00032506
     atom   61 type  3   force =     0.00033517   -0.00168913   -0.00020601
     atom   62 type  3   force =     0.00034215   -0.00170803   -0.00019796
     atom   63 type  3   force =     0.00034962   -0.00168588   -0.00025138
     atom   64 type  3   force =     0.00033144   -0.00169671   -0.00022040
     atom   65 type  3   force =    -0.01149343    0.00885097    0.00743260
     atom   66 type  3   force =    -0.00868314    0.00536833    0.00544548
     atom   67 type  3   force =    -0.00874372    0.00534198    0.00546214
     atom   68 type  3   force =    -0.00865524    0.00531689    0.00543455
     atom   69 type  3   force =    -0.00875236    0.00538058    0.00546251
     atom   70 type  3   force =    -0.00872231    0.00538317    0.00542675
     atom   71 type  3   force =    -0.00876185    0.00539399    0.00548434
     atom   72 type  3   force =    -0.00873607    0.00537838    0.00544361
     atom   73 type  3   force =     0.00831952   -0.00506886    0.00546999
     atom   74 type  3   force =     0.00898394   -0.00538907    0.00572949
     atom   75 type  3   force =     0.00870623   -0.00537436    0.00543946
     atom   76 type  3   force =     0.00839597   -0.00510797    0.00548226
     atom   77 type  3   force =     0.00842323   -0.00509686    0.00546943
     atom   78 type  3   force =     0.00838617   -0.00509757    0.00544885
     atom   79 type  3   force =     0.00842760   -0.00509681    0.00548261
     atom   80 type  3   force =     0.00840166   -0.00509660    0.00546341
     atom   81 type  3   force =     0.00878173   -0.00540078   -0.00547360
     atom   82 type  3   force =     0.00867286   -0.00533460   -0.00542826
     atom   83 type  3   force =     0.00878340   -0.00539676   -0.00548013
     atom   84 type  3   force =     0.00871215   -0.00535110   -0.00546698
     atom   85 type  3   force =     0.00874464   -0.00541568   -0.00545105
     atom   86 type  3   force =     0.00878660   -0.00544681   -0.00546745
     atom   87 type  3   force =     0.00886001   -0.00539362   -0.00556256
     atom   88 type  3   force =     0.00853929   -0.00538307   -0.00550326
     atom   89 type  3   force =    -0.00838481    0.00505791   -0.00544487
     atom   90 type  3   force =    -0.00837875    0.00505702   -0.00547668
     atom   91 type  3   force =    -0.00841330    0.00510294   -0.00546906
     atom   92 type  3   force =    -0.00842230    0.00510203   -0.00549689
     atom   93 type  3   force =    -0.00837170    0.00468499   -0.00514689
     atom   94 type  3   force =    -0.00838740    0.00508670   -0.00545424
     atom   95 type  3   force =    -0.00848079    0.00469216   -0.00579167
     atom   96 type  3   force =    -0.00838050    0.00508686   -0.00544089

     Total force =     0.088438     Total SCF correction =     0.000092


     Computing stress (Cartesian axis) and pressure

          total   stress  (Ry/bohr**3)                   (kbar)     P=   40.67
   0.00029182   0.00000098  -0.00000055         42.93      0.14     -0.08
   0.00000098   0.00026727   0.00000013          0.14     39.32      0.02
  -0.00000055   0.00000013   0.00027022         -0.08      0.02     39.75


     init_run     :    108.09s CPU    110.16s WALL (       1 calls)
     electrons    :   4910.15s CPU   5002.83s WALL (       1 calls)
     forces       :     34.52s CPU     34.99s WALL (       1 calls)
     stress       :    299.07s CPU    300.15s WALL (       1 calls)

     Called by init_run:
     wfcinit      :     94.50s CPU     96.23s WALL (       1 calls)
     potinit      :      4.58s CPU      4.60s WALL (       1 calls)

     Called by electrons:
     c_bands      :   4241.51s CPU   4315.02s WALL (      22 calls)
     sum_band     :    633.16s CPU    646.90s WALL (      22 calls)
     v_of_rho     :      8.91s CPU      9.11s WALL (      23 calls)
     newd         :     25.43s CPU     30.93s WALL (      23 calls)
     mix_rho      :      2.34s CPU      2.38s WALL (      22 calls)

     Called by c_bands:
     init_us_2    :     24.86s CPU     24.91s WALL (     188 calls)
     cegterg      :   4169.18s CPU   4242.67s WALL (      88 calls)

     Called by sum_band:
     sum_band:bec :      0.20s CPU      0.20s WALL (      88 calls)
     addusdens    :     36.24s CPU     42.27s WALL (      22 calls)

     Called by *egterg:
     h_psi        :   3075.65s CPU   3121.82s WALL (     362 calls)
     s_psi        :    313.75s CPU    313.82s WALL (     362 calls)
     g_psi        :      5.52s CPU      5.48s WALL (     270 calls)
     cdiaghg      :    128.87s CPU    128.95s WALL (     358 calls)

     Called by h_psi:
     h_psi:pot    :   3058.41s CPU   3104.46s WALL (     362 calls)
     h_psi:calbec :    295.46s CPU    295.75s WALL (     362 calls)
     vloc_psi     :   2447.45s CPU   2493.15s WALL (     362 calls)
     add_vuspsi   :    315.50s CPU    315.56s WALL (     362 calls)

     General routines
     calbec       :    421.22s CPU    421.64s WALL (     470 calls)
     fft          :      8.63s CPU      9.12s WALL (     323 calls)
     fftw         :   2484.90s CPU   2537.20s WALL (  212806 calls)

     Parallel routines
     fft_scatt_xy :    431.80s CPU    432.74s WALL (  213129 calls)
     fft_scatt_yz :    478.84s CPU    507.18s WALL (  213129 calls)

     PWSCF        :     1h29m CPU        1h30m WALL


   This run was terminated on:  15:53:40  28Oct2021            

=------------------------------------------------------------------------------=
   JOB DONE.
=------------------------------------------------------------------------------=
Note: The following floating-point exceptions are signalling: IEEE_DIVIDE_BY_ZERO IEEE_UNDERFLOW_FLAG IEEE_DENORMAL
Note: The following floating-point exceptions are signalling: IEEE_DIVIDE_BY_ZERO
Note: The following floating-point exceptions are signalling: IEEE_DIVIDE_BY_ZERO
Note: The following floating-point exceptions are signalling: IEEE_DIVIDE_BY_ZERO
