
     Program PWSCF v.6.2 (svn rev. 13949:13950) starts on 28Oct2021 at 15:53:40 

     This program is part of the open-source Quantum ESPRESSO suite
     for quantum simulation of materials; please cite
         "P. Giannozzi et al., J. Phys.:Condens. Matter 21 395502 (2009);
         "P. Giannozzi et al., J. Phys.:Condens. Matter 29 465901 (2017);
          URL http://www.quantum-espresso.org", 
     in publications or presentations arising from this work. More details at
     http://www.quantum-espresso.org/quote

     Parallel version (MPI), running on     4 processors

     MPI processes distributed on     1 nodes
     R & G space division:  proc/nbgrp/npool/nimage =       4
     Reading input from headeradd_supercell-017.in

     Current dimensions of program PWSCF are:
     Max number of different atomic species (ntypx) = 10
     Max number of k-points (npk) =  40000
     Max angular momentum in pseudopotentials (lmaxx) =  3
     Message from routine iosys:
     minimal I/O required, wf_collect reset to FALSE
               file Bi.pbe-dn-rrkjus_psl.1.0.0.UPF: wavefunction(s)  5D renormalized
               file O.pbe-rrkjus.UPF: wavefunction(s)  2S renormalized

     Subspace diagonalization in iterative solution of the eigenvalue problem:
     a serial algorithm will be used


     Parallelization info
     --------------------
     sticks:   dense  smooth     PW     G-vecs:    dense   smooth      PW
     Min        2104    2104    550               165101   165101   22036
     Max        2105    2105    551               165102   165102   22038
     Sum        8417    8417   2201               660405   660405   88147



     bravais-lattice index     =            0
     lattice parameter (alat)  =      19.6286  a.u.
     unit-cell volume          =    8346.2129 (a.u.)^3
     number of atoms/cell      =           96
     number of atomic types    =            3
     number of electrons       =       704.00
     number of Kohn-Sham states=          352
     kinetic-energy cutoff     =      70.0000  Ry
     charge density cutoff     =     280.0000  Ry
     convergence threshold     =      1.0E-09
     mixing beta               =       0.7000
     number of iterations used =            8  plain     mixing
     Exchange-correlation      =  SLA  PW   PBE  PBE ( 1  4  3  4 0 0)

     celldm(1)=  19.628585  celldm(2)=   0.000000  celldm(3)=   0.000000
     celldm(4)=   0.000000  celldm(5)=   0.000000  celldm(6)=   0.000000

     crystal axes: (cart. coord. in units of alat)
               a(1) = (   1.000000   0.000000   0.000000 )  
               a(2) = (  -0.006620   0.980010   0.000000 )  
               a(3) = (   0.496690   0.490005   1.126138 )  

     reciprocal axes: (cart. coord. in units 2 pi/alat)
               b(1) = (  1.000000  0.006755 -0.443995 )  
               b(2) = (  0.000000  1.020397 -0.443995 )  
               b(3) = (  0.000000 -0.000000  0.887990 )  


     PseudoPot. # 1 for Bi read from file:
     /home/uezono/pseudo/Bi.pbe-dn-rrkjus_psl.1.0.0.UPF
     MD5 check sum: f9abe7488ae443f53c935a63d0032572
     Pseudo is Ultrasoft + core correction, Zval = 15.0
     Generated using "atomic" code by A. Dal Corso  v.6.2.2
     Using radial grid of 1283 points,  6 beta functions with: 
                l(1) =   0
                l(2) =   0
                l(3) =   1
                l(4) =   1
                l(5) =   2
                l(6) =   2
     Q(r) pseudized with 0 coefficients 


     PseudoPot. # 2 for V  read from file:
     /home/uezono/pseudo/V.pbe-n-van.UPF
     MD5 check sum: ff5646be6093ca757d9525862f4bfff1
     Pseudo is Ultrasoft + core correction, Zval =  5.0
     Generated by new atomic code, or converted to UPF format
     Using radial grid of  853 points,  6 beta functions with: 
                l(1) =   0
                l(2) =   0
                l(3) =   1
                l(4) =   1
                l(5) =   2
                l(6) =   2
     Q(r) pseudized with  8 coefficients,  rinner =    1.000   1.000   1.000
                                                       1.000   1.000

     PseudoPot. # 3 for O  read from file:
     /home/uezono/pseudo/O.pbe-rrkjus.UPF
     MD5 check sum: fadcf19ee70a498d3030e2e79cf929a4
     Pseudo is Ultrasoft, Zval =  6.0
     Generated by new atomic code, or converted to UPF format
     Using radial grid of 1269 points,  4 beta functions with: 
                l(1) =   0
                l(2) =   0
                l(3) =   1
                l(4) =   1
     Q(r) pseudized with 0 coefficients 


     atomic species   valence    mass     pseudopotential
        Bi            15.00   208.98040     Bi( 1.00)
        V              5.00    50.94150     V ( 1.00)
        O              6.00    15.99940     O ( 1.00)

     No symmetry found



   Cartesian axes

     site n.     atom                  positions (alat units)
         1           Bi  tau(   1) = (   0.2475177   0.3675039   0.1503395  )
         2           Bi  tau(   2) = (   0.7475177   0.3675039   0.1503395  )
         3           Bi  tau(   3) = (   0.2442079   0.8575091   0.1503395  )
         4           Bi  tau(   4) = (   0.7442079   0.8575091   0.1503395  )
         5           Bi  tau(   5) = (   0.4958628   0.6125065   0.7134087  )
         6           Bi  tau(   6) = (   0.9958628   0.6125065   0.7134087  )
         7           Bi  tau(   7) = (   0.4925531   1.1025117   0.7134087  )
         8           Bi  tau(   8) = (   0.9925531   1.1025117   0.7134087  )
         9           Bi  tau(   9) = (   0.4975177   0.3675039   0.4127297  )
        10           Bi  tau(  10) = (   0.9975177   0.3675039   0.4127297  )
        11           Bi  tau(  11) = (   0.4942079   0.8575091   0.4127297  )
        12           Bi  tau(  12) = (   0.9942079   0.8575091   0.4127297  )
        13           Bi  tau(  13) = (   0.7458628   0.6125065   0.9757990  )
        14           Bi  tau(  14) = (   1.2458628   0.6125065   0.9757990  )
        15           Bi  tau(  15) = (   0.7425531   1.1025117   0.9757990  )
        16           Bi  tau(  16) = (   1.2425531   1.1025117   0.9757990  )
        17           V   tau(  17) = (   0.4991726   0.1225013   0.1463980  )
        18           V   tau(  18) = (   0.9991726   0.1225013   0.1463980  )
        19           V   tau(  19) = (   0.4958628   0.6125065   0.1463980  )
        20           V   tau(  20) = (   0.9958628   0.6125065   0.1463980  )
        21           V   tau(  21) = (   0.7475177   0.3675039   0.7094672  )
        22           V   tau(  22) = (   1.2475177   0.3675039   0.7094672  )
        23           V   tau(  23) = (   0.7442079   0.8575091   0.7094672  )
        24           V   tau(  24) = (   1.2442079   0.8575091   0.7094672  )
        25           V   tau(  25) = (   0.2458628   0.6125065   0.4166712  )
        26           V   tau(  26) = (   0.7458628   0.6125065   0.4166712  )
        27           V   tau(  27) = (   0.2425531   1.1025117   0.4166712  )
        28           V   tau(  28) = (   0.7425531   1.1025117   0.4166712  )
        29           V   tau(  29) = (   0.4942079   0.8575091   0.9797404  )
        30           V   tau(  30) = (   0.9942079   0.8575091   0.9797404  )
        31           V   tau(  31) = (   0.4908982   1.3475143   0.9797404  )
        32           V   tau(  32) = (   0.9908982   1.3475143   0.9797404  )
        33           O   tau(  33) = (   0.5715696   0.2487756   0.2344620  )
        34           O   tau(  34) = (   1.0715696   0.2487756   0.2344620  )
        35           O   tau(  35) = (   0.5682599   0.7387808   0.2344620  )
        36           O   tau(  36) = (   1.0682599   0.7387808   0.2344620  )
        37           O   tau(  37) = (   0.8199148   0.4937782   0.7975312  )
        38           O   tau(  38) = (   1.3199148   0.4937782   0.7975312  )
        39           O   tau(  39) = (   0.8166050   0.9837834   0.7975312  )
        40           O   tau(  40) = (   1.3166050   0.9837834   0.7975312  )
        41           O   tau(  41) = (   0.4234657   0.4862321   0.2344620  )
        42           O   tau(  42) = (   0.9234657   0.4862321   0.2344620  )
        43           O   tau(  43) = (   0.4201560   0.9762373   0.2344620  )
        44           O   tau(  44) = (   0.9201560   0.9762373   0.2344620  )
        45           O   tau(  45) = (   0.6718109   0.7312347   0.7975312  )
        46           O   tau(  46) = (   1.1718109   0.7312347   0.7975312  )
        47           O   tau(  47) = (   0.6685011   1.2212399   0.7975312  )
        48           O   tau(  48) = (   1.1685011   1.2212399   0.7975312  )
        49           O   tau(  49) = (   0.1734657   0.4862321   0.3286072  )
        50           O   tau(  50) = (   0.6734657   0.4862321   0.3286072  )
        51           O   tau(  51) = (   0.1701560   0.9762373   0.3286072  )
        52           O   tau(  52) = (   0.6701560   0.9762373   0.3286072  )
        53           O   tau(  53) = (   0.4218109   0.7312347   0.8916764  )
        54           O   tau(  54) = (   0.9218109   0.7312347   0.8916764  )
        55           O   tau(  55) = (   0.4185011   1.2212399   0.8916764  )
        56           O   tau(  56) = (   0.9185011   1.2212399   0.8916764  )
        57           O   tau(  57) = (   0.3215696   0.2487756   0.3286072  )
        58           O   tau(  58) = (   0.8215696   0.2487756   0.3286072  )
        59           O   tau(  59) = (   0.3182599   0.7387808   0.3286072  )
        60           O   tau(  60) = (   0.8182599   0.7387808   0.3286072  )
        61           O   tau(  61) = (   0.5699148   0.4937782   0.8916764  )
        62           O   tau(  62) = (   1.0699148   0.4937782   0.8916764  )
        63           O   tau(  63) = (   0.5666050   0.9837834   0.8916764  )
        64           O   tau(  64) = (   1.0666050   0.9837834   0.8916764  )
        65           O   tau(  65) = (   0.6261113   0.6770740   0.5068402  )
        66           O   tau(  66) = (   1.1257292   0.6766972   0.5059740  )
        67           O   tau(  67) = (   0.6224195   1.1667024   0.5059740  )
        68           O   tau(  68) = (   1.1224195   1.1667024   0.5059740  )
        69           O   tau(  69) = (   0.8740744   0.9216998   1.0690432  )
        70           O   tau(  70) = (   1.3740744   0.9216998   1.0690432  )
        71           O   tau(  71) = (   0.8707646   1.4117049   1.0690432  )
        72           O   tau(  72) = (   1.3707646   1.4117049   1.0690432  )
        73           O   tau(  73) = (   0.3659964   0.5483158   0.5059740  )
        74           O   tau(  74) = (   0.8659964   0.5483158   0.5059740  )
        75           O   tau(  75) = (   0.3626866   1.0383210   0.5059740  )
        76           O   tau(  76) = (   0.8626866   1.0383210   0.5059740  )
        77           O   tau(  77) = (   0.6143415   0.7933184   1.0690432  )
        78           O   tau(  78) = (   1.1143415   0.7933184   1.0690432  )
        79           O   tau(  79) = (   0.6110318   1.2833236   1.0690432  )
        80           O   tau(  80) = (   1.1110318   1.2833236   1.0690432  )
        81           O   tau(  81) = (   0.1193061   0.0583106   0.0570952  )
        82           O   tau(  82) = (   0.6193061   0.0583106   0.0570952  )
        83           O   tau(  83) = (   0.1159964   0.5483158   0.0570952  )
        84           O   tau(  84) = (   0.6159964   0.5483158   0.0570952  )
        85           O   tau(  85) = (   0.3676513   0.3033132   0.6201644  )
        86           O   tau(  86) = (   0.8676513   0.3033132   0.6201644  )
        87           O   tau(  87) = (   0.3643415   0.7933184   0.6201644  )
        88           O   tau(  88) = (   0.8643415   0.7933184   0.6201644  )
        89           O   tau(  89) = (   0.3790390   0.1866920   0.0570952  )
        90           O   tau(  90) = (   0.8790390   0.1866920   0.0570952  )
        91           O   tau(  91) = (   0.3757292   0.6766972   0.0570952  )
        92           O   tau(  92) = (   0.8757292   0.6766972   0.0570952  )
        93           O   tau(  93) = (   0.6273841   0.4316946   0.6201644  )
        94           O   tau(  94) = (   1.1273841   0.4316946   0.6201644  )
        95           O   tau(  95) = (   0.6240744   0.9216998   0.6201644  )
        96           O   tau(  96) = (   1.1240744   0.9216998   0.6201644  )

     number of k points=     4
                       cart. coord. in units 2pi/alat
        k(    1) = (   0.2500000   0.2567880   0.0000000), wk =   0.5000000
        k(    2) = (   0.2500000   0.2567880  -0.4439951), wk =   0.5000000
        k(    3) = (   0.2500000  -0.2534107   0.2219976), wk =   0.5000000
        k(    4) = (  -0.2500000   0.2534107   0.2219976), wk =   0.5000000

     Dense  grid:   660405 G-vectors     FFT dimensions: ( 108, 108, 144)

     Estimated max dynamical RAM per process >       2.39 GB

     Estimated total dynamical RAM >       9.55 GB

     Initial potential from superposition of free atoms

     starting charge  703.96725, renormalised to  704.00000
     Starting wfc are  544 randomized atomic wfcs

     total cpu time spent up to now is      110.6 secs

     Self-consistent Calculation

     iteration #  1     ecut=    70.00 Ry     beta= 0.70
     Davidson diagonalization with overlap
     ethr =  1.00E-02,  avg # of iterations =  1.0

     total cpu time spent up to now is      270.5 secs

     total energy              =   -4949.30551688 Ry
     Harris-Foulkes estimate   =   -4981.29982066 Ry
     estimated scf accuracy    <      40.94839477 Ry

     iteration #  2     ecut=    70.00 Ry     beta= 0.70
     Davidson diagonalization with overlap
     ethr =  5.82E-03,  avg # of iterations =  4.0

     total cpu time spent up to now is      563.7 secs

     total energy              =   -4901.62403931 Ry
     Harris-Foulkes estimate   =   -5036.20159505 Ry
     estimated scf accuracy    <     571.01330634 Ry

     iteration #  3     ecut=    70.00 Ry     beta= 0.70
     Davidson diagonalization with overlap
     ethr =  5.82E-03,  avg # of iterations =  6.2

     total cpu time spent up to now is      868.3 secs

     total energy              =   -4970.00797440 Ry
     Harris-Foulkes estimate   =   -4977.38788057 Ry
     estimated scf accuracy    <      23.90669089 Ry

     iteration #  4     ecut=    70.00 Ry     beta= 0.70
     Davidson diagonalization with overlap
     ethr =  3.40E-03,  avg # of iterations =  2.0

     total cpu time spent up to now is     1065.6 secs

     total energy              =   -4972.11126835 Ry
     Harris-Foulkes estimate   =   -4972.74460003 Ry
     estimated scf accuracy    <       4.39837468 Ry

     iteration #  5     ecut=    70.00 Ry     beta= 0.70
     Davidson diagonalization with overlap
     ethr =  6.25E-04,  avg # of iterations =  2.0

     total cpu time spent up to now is     1230.6 secs

     total energy              =   -4971.79198031 Ry
     Harris-Foulkes estimate   =   -4972.31597170 Ry
     estimated scf accuracy    <       2.08891419 Ry

     iteration #  6     ecut=    70.00 Ry     beta= 0.70
     Davidson diagonalization with overlap
     ethr =  2.97E-04,  avg # of iterations =  3.0

     total cpu time spent up to now is     1436.3 secs

     total energy              =   -4972.08258671 Ry
     Harris-Foulkes estimate   =   -4972.11843815 Ry
     estimated scf accuracy    <       0.06326632 Ry

     iteration #  7     ecut=    70.00 Ry     beta= 0.70
     Davidson diagonalization with overlap
     ethr =  8.99E-06,  avg # of iterations =  4.0

     total cpu time spent up to now is     1697.3 secs

     total energy              =   -4972.08805033 Ry
     Harris-Foulkes estimate   =   -4972.12846050 Ry
     estimated scf accuracy    <       0.12061786 Ry

     iteration #  8     ecut=    70.00 Ry     beta= 0.70
     Davidson diagonalization with overlap
     ethr =  8.99E-06,  avg # of iterations =  3.0

     total cpu time spent up to now is     1937.8 secs

     total energy              =   -4972.10080408 Ry
     Harris-Foulkes estimate   =   -4972.11667476 Ry
     estimated scf accuracy    <       0.05864031 Ry

     iteration #  9     ecut=    70.00 Ry     beta= 0.70
     Davidson diagonalization with overlap
     ethr =  8.33E-06,  avg # of iterations =  3.0

     total cpu time spent up to now is     2165.2 secs

     total energy              =   -4972.10884576 Ry
     Harris-Foulkes estimate   =   -4972.11394917 Ry
     estimated scf accuracy    <       0.02982243 Ry

     iteration # 10     ecut=    70.00 Ry     beta= 0.70
     Davidson diagonalization with overlap
     ethr =  4.24E-06,  avg # of iterations =  2.0

     total cpu time spent up to now is     2334.8 secs

     total energy              =   -4972.10776351 Ry
     Harris-Foulkes estimate   =   -4972.11064135 Ry
     estimated scf accuracy    <       0.00972841 Ry

     iteration # 11     ecut=    70.00 Ry     beta= 0.70
     Davidson diagonalization with overlap
     ethr =  1.38E-06,  avg # of iterations =  3.0

     total cpu time spent up to now is     2544.1 secs

     total energy              =   -4972.10935642 Ry
     Harris-Foulkes estimate   =   -4972.10942154 Ry
     estimated scf accuracy    <       0.00025528 Ry

     iteration # 12     ecut=    70.00 Ry     beta= 0.70
     Davidson diagonalization with overlap
     ethr =  3.63E-08,  avg # of iterations =  3.0

     total cpu time spent up to now is     2788.9 secs

     total energy              =   -4972.10937726 Ry
     Harris-Foulkes estimate   =   -4972.10945184 Ry
     estimated scf accuracy    <       0.00029707 Ry

     iteration # 13     ecut=    70.00 Ry     beta= 0.70
     Davidson diagonalization with overlap
     ethr =  3.63E-08,  avg # of iterations =  3.0

     total cpu time spent up to now is     3001.0 secs

     total energy              =   -4972.10940359 Ry
     Harris-Foulkes estimate   =   -4972.10941540 Ry
     estimated scf accuracy    <       0.00003890 Ry

     iteration # 14     ecut=    70.00 Ry     beta= 0.70
     Davidson diagonalization with overlap
     ethr =  5.53E-09,  avg # of iterations =  3.0

     total cpu time spent up to now is     3214.1 secs

     total energy              =   -4972.10940861 Ry
     Harris-Foulkes estimate   =   -4972.10941056 Ry
     estimated scf accuracy    <       0.00000514 Ry

     iteration # 15     ecut=    70.00 Ry     beta= 0.70
     Davidson diagonalization with overlap
     ethr =  7.30E-10,  avg # of iterations =  3.0

     total cpu time spent up to now is     3464.9 secs

     total energy              =   -4972.10940874 Ry
     Harris-Foulkes estimate   =   -4972.10941113 Ry
     estimated scf accuracy    <       0.00000897 Ry

     iteration # 16     ecut=    70.00 Ry     beta= 0.70
     Davidson diagonalization with overlap
     ethr =  7.30E-10,  avg # of iterations =  3.0

     total cpu time spent up to now is     3696.7 secs

     total energy              =   -4972.10940982 Ry
     Harris-Foulkes estimate   =   -4972.10940999 Ry
     estimated scf accuracy    <       0.00000039 Ry

     iteration # 17     ecut=    70.00 Ry     beta= 0.70
     Davidson diagonalization with overlap
     ethr =  5.58E-11,  avg # of iterations =  3.0

     total cpu time spent up to now is     3941.6 secs

     total energy              =   -4972.10940987 Ry
     Harris-Foulkes estimate   =   -4972.10941002 Ry
     estimated scf accuracy    <       0.00000064 Ry

     iteration # 18     ecut=    70.00 Ry     beta= 0.70
     Davidson diagonalization with overlap
     ethr =  5.58E-11,  avg # of iterations =  3.0

     total cpu time spent up to now is     4172.7 secs

     total energy              =   -4972.10940993 Ry
     Harris-Foulkes estimate   =   -4972.10940996 Ry
     estimated scf accuracy    <       0.00000010 Ry

     iteration # 19     ecut=    70.00 Ry     beta= 0.70
     Davidson diagonalization with overlap
     ethr =  1.47E-11,  avg # of iterations =  3.0

     total cpu time spent up to now is     4393.5 secs

     total energy              =   -4972.10940995 Ry
     Harris-Foulkes estimate   =   -4972.10940995 Ry
     estimated scf accuracy    <       0.00000002 Ry

     iteration # 20     ecut=    70.00 Ry     beta= 0.70
     Davidson diagonalization with overlap
     ethr =  2.40E-12,  avg # of iterations =  3.0

     total cpu time spent up to now is     4627.7 secs

     total energy              =   -4972.10940995 Ry
     Harris-Foulkes estimate   =   -4972.10940995 Ry
     estimated scf accuracy    <          9.0E-09 Ry

     iteration # 21     ecut=    70.00 Ry     beta= 0.70
     Davidson diagonalization with overlap
     ethr =  1.28E-12,  avg # of iterations =  3.0

     total cpu time spent up to now is     4849.6 secs

     total energy              =   -4972.10940995 Ry
     Harris-Foulkes estimate   =   -4972.10940995 Ry
     estimated scf accuracy    <          1.8E-09 Ry

     iteration # 22     ecut=    70.00 Ry     beta= 0.70
     Davidson diagonalization with overlap
     ethr =  2.57E-13,  avg # of iterations =  3.0

     total cpu time spent up to now is     5086.5 secs

     total energy              =   -4972.10940995 Ry
     Harris-Foulkes estimate   =   -4972.10940995 Ry
     estimated scf accuracy    <          1.6E-09 Ry

     iteration # 23     ecut=    70.00 Ry     beta= 0.70
     Davidson diagonalization with overlap
     ethr =  2.29E-13,  avg # of iterations =  3.0

     total cpu time spent up to now is     5297.7 secs

     End of self-consistent calculation

          k = 0.2500 0.2568 0.0000 ( 82568 PWs)   bands (ev):

   -14.4877 -14.4869 -14.4860 -14.4853 -14.4836 -14.4830 -14.4826 -14.4815
   -14.4780 -14.4693 -14.4684 -14.4674 -14.4635 -14.4634 -14.4585 -14.4572
   -14.4521 -14.4508 -14.4483 -14.4365 -14.4336 -14.4317 -14.4300 -14.4252
   -14.4234 -14.4133 -14.4117 -14.4059 -14.4057 -14.4053 -14.4042 -14.4025
   -14.4020 -14.3986 -14.3984 -14.3978 -14.3976 -14.3963 -14.3949 -14.3948
   -14.3939 -14.3927 -14.3924 -14.3924 -14.3911 -14.3907 -14.3902 -14.3887
   -14.3882 -14.3856 -14.3843 -14.3833 -14.3817 -14.3804 -14.3797 -14.3797
   -14.3787 -14.3745 -14.3732 -14.3701 -14.3686 -14.3670 -14.3636 -14.3617
   -14.3600 -14.3599 -14.3588 -14.3580 -14.3563 -14.3528 -14.3524 -14.3519
   -14.3505 -14.3491 -14.3478 -14.3461 -14.3457 -14.3424 -14.3407 -14.3365
   -10.4959 -10.2964 -10.1671 -10.1651 -10.1212 -10.1194  -9.9301  -9.8057
    -9.6774  -9.6056  -9.6038  -9.6003  -9.5989  -9.5453  -9.4699  -9.3939
    -9.3597  -9.3210  -9.3204  -9.3143  -9.3021  -9.2797  -9.2795  -9.2525
    -9.2431  -9.1714  -9.1487  -9.1151  -9.1132  -9.0843  -9.0830  -9.0660
    -9.0634  -9.0421  -9.0402  -9.0396  -8.9743  -8.9733  -8.9532  -8.9450
    -8.9355  -8.9335  -8.9243  -8.8988  -8.8928  -8.8908  -8.8885  -8.8633
    -8.8252  -8.8247  -8.8237  -8.8218  -8.8210  -8.8046  -8.7839  -8.7827
    -8.7757  -8.7532  -8.7140  -8.7045  -8.7034  -8.6863  -8.6851  -8.6585
    -2.2088  -2.0747  -2.0731  -1.9656  -1.9025  -1.9010  -1.8935  -1.7948
    -1.5981  -1.5530  -1.5515  -1.5039  -1.4728  -1.3594  -1.3578  -1.3052
     2.4202   2.4646   2.4980   2.4995   2.5545   2.5546   2.6753   2.7356
     2.7360   2.7406   2.7506   2.7521   2.7646   2.7710   2.7755   2.8354
     2.8357   2.9409   2.9524   2.9760   2.9764   3.0043   3.1134   3.1806
     3.1813   3.2222   3.2515   3.2527   3.2807   3.3617   3.3862   3.3866
     3.4150   3.4221   3.4227   3.5350   3.5354   3.6267   3.6433   3.7110
     3.7120   3.7689   3.7765   3.7910   3.8973   3.8977   3.8987   3.9701
     3.9953   4.0187   4.0273   4.0427   4.0429   4.0436   4.0446   4.1466
     4.1865   4.2094   4.2096   4.2361   4.2394   4.2402   4.2454   4.2681
     4.2850   4.2859   4.3004   4.3518   4.3652   4.3697   4.3705   4.3763
     4.3828   4.3835   4.4050   4.4087   4.4419   4.4867   4.4933   4.4939
     4.5360   4.5381   4.6138   4.6348   4.6353   4.6444   4.6453   4.6730
     4.6740   4.6804   4.6966   4.7005   4.7140   4.7218   4.7674   4.7702
     4.7705   4.8417   4.8613   4.8624   4.9192   4.9343   5.0023   5.0077
     5.0085   5.0561   5.0566   5.0929   5.0937   5.1133   5.1230   5.1235
     5.1456   5.1465   5.2148   5.2736   5.2869   5.2873   5.2888   5.3620
     5.3688   5.3691   5.3938   5.3983   5.4240   5.5199   5.5208   5.5456
     5.6497   5.7460   5.7462   5.7521   5.8377   5.8540   5.8546   5.8705
     5.8908   5.9899   5.9929   5.9936   6.0038   6.0650   6.0655   6.1332
     6.1358   6.1559   6.2484   6.2713   6.2724   6.2743   6.2748   6.2764
     6.2855   6.2859   6.2961   6.4117   6.4124   6.4137   6.4195   6.4238
     6.4639   6.4652   6.4740   6.4746   6.4927   6.5824   6.5900   6.5911
     6.6961   6.6986   6.7259   6.7913   6.7924   6.7954   6.8129   6.8674
     6.8744   6.8786   6.8798   6.9329   6.9419   6.9471   6.9484   6.9904
     6.9911   7.0643   7.1488   7.2890   7.2898   7.3690   7.3701   7.4774

          k = 0.2500 0.2568-0.4440 ( 82488 PWs)   bands (ev):

   -14.4880 -14.4863 -14.4860 -14.4853 -14.4848 -14.4837 -14.4827 -14.4785
   -14.4752 -14.4742 -14.4724 -14.4609 -14.4577 -14.4571 -14.4565 -14.4559
   -14.4533 -14.4531 -14.4516 -14.4497 -14.4352 -14.4325 -14.4310 -14.4231
   -14.4205 -14.4167 -14.4152 -14.4141 -14.4078 -14.4056 -14.4043 -14.4027
   -14.4000 -14.3990 -14.3979 -14.3978 -14.3974 -14.3971 -14.3961 -14.3953
   -14.3936 -14.3926 -14.3920 -14.3913 -14.3905 -14.3891 -14.3886 -14.3855
   -14.3850 -14.3841 -14.3834 -14.3828 -14.3798 -14.3763 -14.3747 -14.3726
   -14.3713 -14.3710 -14.3709 -14.3705 -14.3703 -14.3698 -14.3685 -14.3681
   -14.3624 -14.3620 -14.3609 -14.3564 -14.3546 -14.3537 -14.3530 -14.3518
   -14.3514 -14.3497 -14.3491 -14.3480 -14.3477 -14.3423 -14.3406 -14.3360
   -10.4131 -10.4113 -10.2242 -10.1947 -10.0987 -10.0191  -9.8751  -9.8732
    -9.6769  -9.6003  -9.5593  -9.5148  -9.5097  -9.5077  -9.4909  -9.4903
    -9.4416  -9.4398  -9.3937  -9.3920  -9.2304  -9.2255  -9.2239  -9.1953
    -9.1940  -9.1696  -9.1690  -9.1518  -9.1414  -9.1387  -9.1236  -9.0862
    -9.0669  -9.0655  -9.0501  -8.9816  -8.9745  -8.9642  -8.9100  -8.9076
    -8.8998  -8.8992  -8.8944  -8.8894  -8.8881  -8.8806  -8.8758  -8.8748
    -8.8526  -8.8399  -8.8311  -8.8298  -8.8160  -8.8150  -8.8004  -8.7860
    -8.7847  -8.7641  -8.7189  -8.6972  -8.6920  -8.6851  -8.6842  -8.6817
    -2.1225  -2.1000  -2.0982  -2.0227  -1.9819  -1.8520  -1.8504  -1.7732
    -1.6575  -1.5447  -1.5431  -1.4957  -1.3900  -1.3780  -1.3763  -1.3304
     2.4965   2.4999   2.5660   2.5690   2.5699   2.5716   2.6233   2.6614
     2.6623   2.7258   2.7261   2.7510   2.7524   2.7769   2.8685   2.8699
     2.8703   2.8741   2.8784   2.8794   2.9146   3.0343   3.0928   3.1338
     3.1400   3.1408   3.2569   3.2597   3.2723   3.2857   3.2983   3.2986
     3.3720   3.4349   3.4614   3.4618   3.6030   3.6033   3.6717   3.7709
     3.7986   3.8283   3.9031   3.9037   3.9862   3.9866   4.0150   4.0364
     4.0473   4.0665   4.0840   4.0944   4.1172   4.1186   4.1502   4.1704
     4.1708   4.2037   4.2225   4.2227   4.2233   4.2374   4.2646   4.2851
     4.2857   4.2966   4.2983   4.2991   4.3195   4.3394   4.3399   4.3422
     4.4065   4.4311   4.4319   4.4340   4.4733   4.4737   4.4747   4.4788
     4.4811   4.4824   4.5269   4.5324   4.5514   4.5526   4.6019   4.6252
     4.6258   4.6409   4.6863   4.6866   4.7301   4.7926   4.8226   4.8230
     4.8317   4.8329   4.8643   4.8783   4.8789   4.8857   4.8868   4.8977
     4.8981   4.9909   5.0366   5.0374   5.0927   5.1068   5.1166   5.1531
     5.1651   5.1657   5.2046   5.2265   5.2457   5.2466   5.2550   5.2751
     5.3074   5.3365   5.3371   5.4458   5.4710   5.5707   5.5709   5.6570
     5.7136   5.7955   5.8003   5.8006   5.8117   5.8865   5.8872   5.9159
     5.9804   6.0127   6.0305   6.0315   6.0561   6.0664   6.0675   6.0682
     6.1154   6.1612   6.1698   6.1702   6.1879   6.2017   6.2030   6.2751
     6.3439   6.3551   6.3565   6.4019   6.4026   6.4096   6.4912   6.4919
     6.5016   6.5135   6.5236   6.5268   6.5770   6.5880   6.6172   6.6370
     6.6373   6.6579   6.6858   6.6867   6.7878   6.7892   6.8010   6.8029
     6.8254   6.8804   6.8809   6.9348   6.9356   6.9549   6.9564   6.9718
     7.0241   7.0311   7.0891   7.1809   7.3432   7.3450   7.4402   7.5546

          k = 0.2500-0.2534 0.2220 ( 82555 PWs)   bands (ev):

   -14.4880 -14.4867 -14.4863 -14.4854 -14.4847 -14.4840 -14.4831 -14.4778
   -14.4751 -14.4735 -14.4707 -14.4636 -14.4608 -14.4601 -14.4590 -14.4573
   -14.4542 -14.4509 -14.4477 -14.4427 -14.4357 -14.4313 -14.4285 -14.4258
   -14.4223 -14.4154 -14.4120 -14.4089 -14.4077 -14.4074 -14.4050 -14.4039
   -14.3997 -14.3985 -14.3982 -14.3974 -14.3969 -14.3965 -14.3951 -14.3941
   -14.3935 -14.3929 -14.3915 -14.3909 -14.3905 -14.3900 -14.3896 -14.3887
   -14.3871 -14.3851 -14.3843 -14.3833 -14.3832 -14.3796 -14.3760 -14.3747
   -14.3739 -14.3730 -14.3715 -14.3710 -14.3699 -14.3681 -14.3655 -14.3652
   -14.3621 -14.3609 -14.3570 -14.3564 -14.3563 -14.3553 -14.3524 -14.3510
   -14.3508 -14.3502 -14.3484 -14.3473 -14.3470 -14.3416 -14.3399 -14.3369
   -10.4780 -10.3428 -10.2011 -10.1569 -10.1063 -10.0293  -9.9444  -9.8712
    -9.6908  -9.6128  -9.6077  -9.5888  -9.5734  -9.4718  -9.4142  -9.4082
    -9.4064  -9.3900  -9.3829  -9.3604  -9.2471  -9.2334  -9.2225  -9.2014
    -9.1968  -9.1783  -9.1656  -9.1334  -9.1213  -9.1190  -9.1112  -9.1104
    -9.0627  -9.0574  -9.0565  -9.0232  -9.0219  -9.0100  -8.9363  -8.9358
    -8.9313  -8.9147  -8.9136  -8.8893  -8.8860  -8.8854  -8.8496  -8.8475
    -8.8418  -8.8393  -8.8078  -8.7955  -8.7947  -8.7839  -8.7829  -8.7717
    -8.7680  -8.7630  -8.7583  -8.7322  -8.7098  -8.7043  -8.6759  -8.6490
    -2.1762  -2.1132  -2.0312  -2.0121  -1.9600  -1.8804  -1.8249  -1.8184
    -1.6239  -1.5605  -1.5194  -1.5109  -1.4290  -1.3967  -1.3351  -1.3236
     2.4312   2.4819   2.5237   2.5562   2.5783   2.5803   2.5821   2.6384
     2.6914   2.7004   2.7258   2.7413   2.7828   2.7906   2.8053   2.8415
     2.8422   2.8602   3.0159   3.0334   3.0566   3.0832   3.1174   3.1268
     3.1426   3.1922   3.1948   3.2120   3.2338   3.2547   3.3122   3.3724
     3.5131   3.5264   3.5407   3.5499   3.5762   3.6014   3.6515   3.6569
     3.6880   3.6974   3.8614   3.8736   3.9121   3.9343   3.9456   3.9534
     3.9848   3.9865   4.0121   4.0482   4.0985   4.1151   4.1280   4.1409
     4.1486   4.1962   4.2023   4.2054   4.2123   4.2318   4.2338   4.2419
     4.2496   4.2528   4.2942   4.3079   4.3421   4.3548   4.3573   4.3833
     4.4247   4.4268   4.4330   4.4449   4.4533   4.4686   4.4969   4.5298
     4.5392   4.5405   4.5414   4.5651   4.5727   4.6687   4.6695   4.6826
     4.6890   4.7127   4.7348   4.7385   4.7503   4.7528   4.7572   4.7634
     4.7918   4.7981   4.8720   4.8750   4.8775   4.9051   4.9330   4.9657
     4.9767   4.9990   5.0318   5.0501   5.0935   5.0956   5.1238   5.1778
     5.1850   5.2029   5.2303   5.2566   5.2666   5.2689   5.2964   5.3010
     5.3748   5.3765   5.4497   5.4664   5.5043   5.5401   5.5453   5.6076
     5.6762   5.6879   5.6927   5.7130   5.7222   5.7494   5.8083   5.8542
     5.8892   5.9408   5.9610   5.9761   5.9891   6.0380   6.0481   6.1435
     6.1516   6.2004   6.2277   6.2536   6.2730   6.2745   6.2797   6.3113
     6.3352   6.3537   6.3588   6.3780   6.4242   6.4331   6.4349   6.4788
     6.4795   6.5012   6.5546   6.5683   6.6154   6.6216   6.6624   6.6655
     6.6911   6.6917   6.6939   6.7219   6.7262   6.7323   6.7479   6.7906
     6.8314   6.8699   6.8876   6.9221   6.9377   6.9422   6.9567   6.9795
     6.9819   7.0797   7.1203   7.2382   7.2885   7.3057   7.4634   7.4685

          k =-0.2500 0.2534 0.2220 ( 82555 PWs)   bands (ev):

   -14.4880 -14.4868 -14.4863 -14.4854 -14.4847 -14.4840 -14.4831 -14.4778
   -14.4751 -14.4736 -14.4707 -14.4636 -14.4609 -14.4600 -14.4591 -14.4573
   -14.4542 -14.4509 -14.4477 -14.4427 -14.4357 -14.4314 -14.4285 -14.4258
   -14.4223 -14.4154 -14.4120 -14.4088 -14.4077 -14.4075 -14.4050 -14.4039
   -14.3997 -14.3985 -14.3982 -14.3973 -14.3969 -14.3965 -14.3951 -14.3941
   -14.3935 -14.3929 -14.3915 -14.3909 -14.3905 -14.3900 -14.3897 -14.3886
   -14.3871 -14.3850 -14.3844 -14.3835 -14.3831 -14.3795 -14.3759 -14.3748
   -14.3739 -14.3729 -14.3715 -14.3709 -14.3701 -14.3680 -14.3655 -14.3653
   -14.3621 -14.3609 -14.3569 -14.3565 -14.3563 -14.3552 -14.3524 -14.3512
   -14.3506 -14.3501 -14.3485 -14.3473 -14.3469 -14.3416 -14.3399 -14.3369
   -10.4780 -10.3428 -10.2011 -10.1569 -10.1064 -10.0292  -9.9444  -9.8712
    -9.6908  -9.6128  -9.6076  -9.5888  -9.5734  -9.4718  -9.4143  -9.4081
    -9.4065  -9.3901  -9.3830  -9.3603  -9.2471  -9.2333  -9.2223  -9.2013
    -9.1968  -9.1782  -9.1654  -9.1334  -9.1214  -9.1191  -9.1112  -9.1106
    -9.0625  -9.0578  -9.0572  -9.0235  -9.0213  -9.0099  -8.9361  -8.9354
    -8.9315  -8.9146  -8.9135  -8.8895  -8.8860  -8.8855  -8.8494  -8.8475
    -8.8421  -8.8394  -8.8074  -8.7955  -8.7952  -8.7838  -8.7824  -8.7713
    -8.7684  -8.7631  -8.7586  -8.7320  -8.7098  -8.7043  -8.6759  -8.6490
    -2.1763  -2.1133  -2.0311  -2.0120  -1.9599  -1.8803  -1.8250  -1.8186
    -1.6238  -1.5604  -1.5195  -1.5110  -1.4290  -1.3969  -1.3350  -1.3235
     2.4313   2.4818   2.5236   2.5563   2.5784   2.5802   2.5823   2.6382
     2.6914   2.7005   2.7259   2.7410   2.7828   2.7906   2.8055   2.8412
     2.8423   2.8600   3.0160   3.0337   3.0567   3.0833   3.1172   3.1269
     3.1430   3.1921   3.1947   3.2125   3.2337   3.2544   3.3122   3.3724
     3.5132   3.5259   3.5414   3.5498   3.5761   3.6014   3.6514   3.6565
     3.6881   3.6972   3.8614   3.8736   3.9121   3.9338   3.9451   3.9531
     3.9846   3.9869   4.0120   4.0479   4.0987   4.1152   4.1286   4.1410
     4.1487   4.1959   4.2027   4.2056   4.2120   4.2322   4.2339   4.2421
     4.2500   4.2523   4.2943   4.3078   4.3414   4.3549   4.3572   4.3831
     4.4248   4.4268   4.4332   4.4450   4.4533   4.4688   4.4967   4.5305
     4.5394   4.5405   4.5413   4.5650   4.5731   4.6685   4.6693   4.6826
     4.6892   4.7129   4.7348   4.7381   4.7504   4.7534   4.7568   4.7639
     4.7919   4.7979   4.8717   4.8753   4.8777   4.9042   4.9323   4.9654
     4.9771   4.9994   5.0323   5.0498   5.0932   5.0954   5.1242   5.1779
     5.1854   5.2024   5.2303   5.2570   5.2664   5.2687   5.2963   5.3007
     5.3746   5.3761   5.4500   5.4661   5.5047   5.5408   5.5443   5.6076
     5.6761   5.6879   5.6934   5.7135   5.7219   5.7489   5.8085   5.8549
     5.8895   5.9408   5.9613   5.9765   5.9886   6.0377   6.0484   6.1436
     6.1519   6.2003   6.2276   6.2534   6.2732   6.2745   6.2800   6.3113
     6.3353   6.3536   6.3582   6.3784   6.4239   6.4332   6.4341   6.4788
     6.4789   6.5015   6.5551   6.5678   6.6152   6.6222   6.6624   6.6653
     6.6908   6.6916   6.6941   6.7221   6.7265   6.7323   6.7477   6.7906
     6.8312   6.8699   6.8875   6.9220   6.9377   6.9422   6.9570   6.9795
     6.9820   7.0798   7.1203   7.2382   7.2885   7.3057   7.4632   7.4685

     highest occupied level (ev):     7.5546

!    total energy              =   -4972.10940995 Ry
     Harris-Foulkes estimate   =   -4972.10940995 Ry
     estimated scf accuracy    <          2.6E-10 Ry

     The total energy is the sum of the following terms:

     one-electron contribution =   -1193.05534884 Ry
     hartree contribution      =    1074.10906951 Ry
     xc contribution           =   -1297.69633179 Ry
     ewald contribution        =   -3555.46679884 Ry

     convergence has been achieved in  23 iterations

     Forces acting on atoms (cartesian axes, Ry/au):

     atom    1 type  1   force =    -0.00002213   -0.00001909   -0.01390528
     atom    2 type  1   force =     0.00005265   -0.00011699   -0.01404856
     atom    3 type  1   force =    -0.00001535    0.00002077   -0.01389071
     atom    4 type  1   force =     0.00001612    0.00009355   -0.01398543
     atom    5 type  1   force =     0.00030312    0.00018019   -0.01406642
     atom    6 type  1   force =    -0.00000086    0.00010327   -0.01376255
     atom    7 type  1   force =     0.00006318   -0.00006350   -0.01386182
     atom    8 type  1   force =    -0.00003656   -0.00003867   -0.01382762
     atom    9 type  1   force =    -0.00013012   -0.00016422    0.01397912
     atom   10 type  1   force =     0.00008578   -0.00010274    0.01385893
     atom   11 type  1   force =     0.00019133   -0.00009328    0.01421445
     atom   12 type  1   force =     0.00003645    0.00005473    0.01398914
     atom   13 type  1   force =    -0.00006447    0.00004968    0.01374223
     atom   14 type  1   force =     0.00004290   -0.00001589    0.01378710
     atom   15 type  1   force =    -0.00001019   -0.00003374    0.01376744
     atom   16 type  1   force =     0.00002223   -0.00000110    0.01379718
     atom   17 type  2   force =    -0.00002510   -0.00000916    0.00451626
     atom   18 type  2   force =     0.00002004   -0.00001064    0.00451029
     atom   19 type  2   force =    -0.00012658   -0.00009197    0.00442339
     atom   20 type  2   force =     0.00004400    0.00000656    0.00446988
     atom   21 type  2   force =    -0.00009426    0.00000680    0.00456484
     atom   22 type  2   force =     0.00004857    0.00008000    0.00462460
     atom   23 type  2   force =    -0.00021875   -0.00032058    0.00421680
     atom   24 type  2   force =     0.00005529   -0.00001557    0.00452408
     atom   25 type  2   force =    -0.00000946    0.00002176   -0.00453396
     atom   26 type  2   force =    -0.00182646    0.00162900   -0.00134754
     atom   27 type  2   force =    -0.00000557    0.00000190   -0.00452863
     atom   28 type  2   force =    -0.00001124   -0.00003871   -0.00446909
     atom   29 type  2   force =     0.00002092   -0.00006076   -0.00462538
     atom   30 type  2   force =    -0.00002581   -0.00000277   -0.00459247
     atom   31 type  2   force =     0.00004325    0.00004758   -0.00460801
     atom   32 type  2   force =    -0.00001711    0.00001607   -0.00457643
     atom   33 type  3   force =    -0.00015204   -0.00124999    0.00017878
     atom   34 type  3   force =    -0.00016697   -0.00126200    0.00019026
     atom   35 type  3   force =    -0.00006314   -0.00134033    0.00046939
     atom   36 type  3   force =    -0.00019328   -0.00129325    0.00017687
     atom   37 type  3   force =    -0.00015316   -0.00127882    0.00015541
     atom   38 type  3   force =    -0.00036503   -0.00145816    0.00020580
     atom   39 type  3   force =    -0.00010889   -0.00117695    0.00025247
     atom   40 type  3   force =    -0.00017520   -0.00127305    0.00017927
     atom   41 type  3   force =    -0.00028660    0.00173480    0.00020553
     atom   42 type  3   force =    -0.00038170    0.00168555    0.00024942
     atom   43 type  3   force =    -0.00033474    0.00169902    0.00021977
     atom   44 type  3   force =    -0.00036119    0.00167438    0.00021357
     atom   45 type  3   force =    -0.00032157    0.00170568    0.00048269
     atom   46 type  3   force =    -0.00037019    0.00166402    0.00021324
     atom   47 type  3   force =    -0.00033293    0.00169776    0.00022060
     atom   48 type  3   force =    -0.00034225    0.00167743    0.00023041
     atom   49 type  3   force =     0.00016395    0.00127461   -0.00017138
     atom   50 type  3   force =    -0.00002781    0.00183384    0.00031143
     atom   51 type  3   force =     0.00016400    0.00127487   -0.00017152
     atom   52 type  3   force =     0.00015600    0.00126302   -0.00019233
     atom   53 type  3   force =     0.00014982    0.00137637   -0.00004793
     atom   54 type  3   force =     0.00020480    0.00127872   -0.00015381
     atom   55 type  3   force =     0.00016153    0.00127496   -0.00015074
     atom   56 type  3   force =     0.00017806    0.00129136   -0.00015671
     atom   57 type  3   force =     0.00034990   -0.00168560   -0.00021260
     atom   58 type  3   force =     0.00034433   -0.00164237   -0.00023366
     atom   59 type  3   force =     0.00032315   -0.00172529   -0.00022276
     atom   60 type  3   force =     0.00016505   -0.00201995   -0.00009045
     atom   61 type  3   force =     0.00035955   -0.00179131   -0.00009400
     atom   62 type  3   force =     0.00031712   -0.00169957   -0.00020346
     atom   63 type  3   force =     0.00033012   -0.00167868   -0.00018938
     atom   64 type  3   force =     0.00034281   -0.00169876   -0.00019896
     atom   65 type  3   force =    -0.00680033    0.00346850    0.00179625
     atom   66 type  3   force =    -0.00875782    0.00537413    0.00544233
     atom   67 type  3   force =    -0.00873777    0.00539369    0.00542444
     atom   68 type  3   force =    -0.00875065    0.00539290    0.00543444
     atom   69 type  3   force =    -0.00874877    0.00538137    0.00548539
     atom   70 type  3   force =    -0.00879955    0.00539982    0.00551703
     atom   71 type  3   force =    -0.00873430    0.00536172    0.00547712
     atom   72 type  3   force =    -0.00878826    0.00539244    0.00551153
     atom   73 type  3   force =     0.00850755   -0.00507292    0.00541095
     atom   74 type  3   force =     0.00812176   -0.00498320    0.00470291
     atom   75 type  3   force =     0.00844186   -0.00513209    0.00544427
     atom   76 type  3   force =     0.00840965   -0.00507776    0.00543567
     atom   77 type  3   force =     0.00843039   -0.00509916    0.00551700
     atom   78 type  3   force =     0.00844176   -0.00509288    0.00551453
     atom   79 type  3   force =     0.00843140   -0.00510593    0.00550368
     atom   80 type  3   force =     0.00843650   -0.00510277    0.00551825
     atom   81 type  3   force =     0.00872617   -0.00537642   -0.00542527
     atom   82 type  3   force =     0.00876093   -0.00539789   -0.00544380
     atom   83 type  3   force =     0.00872699   -0.00537266   -0.00542817
     atom   84 type  3   force =     0.00872867   -0.00537281   -0.00541609
     atom   85 type  3   force =     0.00877810   -0.00537482   -0.00549772
     atom   86 type  3   force =     0.00877802   -0.00536512   -0.00550765
     atom   87 type  3   force =     0.00867447   -0.00533217   -0.00545707
     atom   88 type  3   force =     0.00906393   -0.00526345   -0.00534705
     atom   89 type  3   force =    -0.00839596    0.00509300   -0.00544719
     atom   90 type  3   force =    -0.00843809    0.00512347   -0.00545313
     atom   91 type  3   force =    -0.00835157    0.00507534   -0.00542697
     atom   92 type  3   force =    -0.00841353    0.00509667   -0.00544536
     atom   93 type  3   force =    -0.00837250    0.00499866   -0.00550927
     atom   94 type  3   force =    -0.00845953    0.00511334   -0.00551781
     atom   95 type  3   force =    -0.00845923    0.00550855   -0.00532521
     atom   96 type  3   force =    -0.00842957    0.00510368   -0.00550907

     Total force =     0.087192     Total SCF correction =     0.000063


     Computing stress (Cartesian axis) and pressure

          total   stress  (Ry/bohr**3)                   (kbar)     P=   40.49
   0.00029032   0.00000200   0.00000054         42.71      0.29      0.08
   0.00000200   0.00026648  -0.00000022          0.29     39.20     -0.03
   0.00000054  -0.00000022   0.00026888          0.08     -0.03     39.55


     init_run     :    108.24s CPU    110.27s WALL (       1 calls)
     electrons    :   5089.56s CPU   5187.09s WALL (       1 calls)
     forces       :     34.71s CPU     35.22s WALL (       1 calls)
     stress       :    303.10s CPU    304.30s WALL (       1 calls)

     Called by init_run:
     wfcinit      :     94.46s CPU     96.16s WALL (       1 calls)
     potinit      :      4.55s CPU      4.58s WALL (       1 calls)

     Called by electrons:
     c_bands      :   4390.89s CPU   4468.35s WALL (      23 calls)
     sum_band     :    661.76s CPU    675.94s WALL (      23 calls)
     v_of_rho     :      9.28s CPU      9.51s WALL (      24 calls)
     newd         :     26.34s CPU     32.27s WALL (      24 calls)
     mix_rho      :      2.49s CPU      2.51s WALL (      23 calls)

     Called by c_bands:
     init_us_2    :     25.87s CPU     25.94s WALL (     196 calls)
     cegterg      :   4315.56s CPU   4392.93s WALL (      92 calls)

     Called by sum_band:
     sum_band:bec :      0.18s CPU      0.21s WALL (      92 calls)
     addusdens    :     37.92s CPU     44.19s WALL (      23 calls)

     Called by *egterg:
     h_psi        :   3187.04s CPU   3235.74s WALL (     373 calls)
     s_psi        :    325.50s CPU    325.55s WALL (     373 calls)
     g_psi        :      5.66s CPU      5.65s WALL (     277 calls)
     cdiaghg      :    130.46s CPU    130.54s WALL (     369 calls)

     Called by h_psi:
     h_psi:pot    :   3169.10s CPU   3217.71s WALL (     373 calls)
     h_psi:calbec :    305.90s CPU    306.17s WALL (     373 calls)
     vloc_psi     :   2536.13s CPU   2584.46s WALL (     373 calls)
     add_vuspsi   :    327.07s CPU    327.08s WALL (     373 calls)

     General routines
     calbec       :    436.27s CPU    436.69s WALL (     485 calls)
     fft          :      9.20s CPU      9.72s WALL (     336 calls)
     fftw         :   2578.53s CPU   2633.75s WALL (  221036 calls)

     Parallel routines
     fft_scatt_xy :    450.15s CPU    450.16s WALL (  221372 calls)
     fft_scatt_yz :    493.95s CPU    524.57s WALL (  221372 calls)

     PWSCF        :     1h32m CPU        1h33m WALL


   This run was terminated on:  17:27:37  28Oct2021            

=------------------------------------------------------------------------------=
   JOB DONE.
=------------------------------------------------------------------------------=
Note: The following floating-point exceptions are signalling: IEEE_DIVIDE_BY_ZERO
Note: The following floating-point exceptions are signalling: IEEE_DIVIDE_BY_ZERO
Note: The following floating-point exceptions are signalling: IEEE_DIVIDE_BY_ZERO
Note: The following floating-point exceptions are signalling: IEEE_DIVIDE_BY_ZERO IEEE_UNDERFLOW_FLAG IEEE_DENORMAL
