
     Program PWSCF v.6.2 (svn rev. 13949:13950) starts on 27Oct2021 at 15:11:36 

     This program is part of the open-source Quantum ESPRESSO suite
     for quantum simulation of materials; please cite
         "P. Giannozzi et al., J. Phys.:Condens. Matter 21 395502 (2009);
         "P. Giannozzi et al., J. Phys.:Condens. Matter 29 465901 (2017);
          URL http://www.quantum-espresso.org", 
     in publications or presentations arising from this work. More details at
     http://www.quantum-espresso.org/quote

     Parallel version (MPI), running on     4 processors

     MPI processes distributed on     1 nodes
     R & G space division:  proc/nbgrp/npool/nimage =       4
     Reading input from headeradd_supercell-001.in

     Current dimensions of program PWSCF are:
     Max number of different atomic species (ntypx) = 10
     Max number of k-points (npk) =  40000
     Max angular momentum in pseudopotentials (lmaxx) =  3
     Message from routine iosys:
     minimal I/O required, wf_collect reset to FALSE
               file Bi.pbe-dn-rrkjus_psl.1.0.0.UPF: wavefunction(s)  5D renormalized
               file O.pbe-rrkjus.UPF: wavefunction(s)  2S renormalized

     Subspace diagonalization in iterative solution of the eigenvalue problem:
     a serial algorithm will be used


     Parallelization info
     --------------------
     sticks:   dense  smooth     PW     G-vecs:    dense   smooth      PW
     Min        2104    2104    550               165101   165101   22036
     Max        2105    2105    551               165102   165102   22038
     Sum        8417    8417   2201               660405   660405   88147



     bravais-lattice index     =            0
     lattice parameter (alat)  =      19.6286  a.u.
     unit-cell volume          =    8346.2129 (a.u.)^3
     number of atoms/cell      =           96
     number of atomic types    =            3
     number of electrons       =       704.00
     number of Kohn-Sham states=          352
     kinetic-energy cutoff     =      70.0000  Ry
     charge density cutoff     =     280.0000  Ry
     convergence threshold     =      1.0E-09
     mixing beta               =       0.7000
     number of iterations used =            8  plain     mixing
     Exchange-correlation      =  SLA  PW   PBE  PBE ( 1  4  3  4 0 0)

     celldm(1)=  19.628585  celldm(2)=   0.000000  celldm(3)=   0.000000
     celldm(4)=   0.000000  celldm(5)=   0.000000  celldm(6)=   0.000000

     crystal axes: (cart. coord. in units of alat)
               a(1) = (   1.000000   0.000000   0.000000 )  
               a(2) = (  -0.006620   0.980010   0.000000 )  
               a(3) = (   0.496690   0.490005   1.126138 )  

     reciprocal axes: (cart. coord. in units 2 pi/alat)
               b(1) = (  1.000000  0.006755 -0.443995 )  
               b(2) = (  0.000000  1.020397 -0.443995 )  
               b(3) = (  0.000000 -0.000000  0.887990 )  


     PseudoPot. # 1 for Bi read from file:
     /home/uezono/pseudo/Bi.pbe-dn-rrkjus_psl.1.0.0.UPF
     MD5 check sum: f9abe7488ae443f53c935a63d0032572
     Pseudo is Ultrasoft + core correction, Zval = 15.0
     Generated using "atomic" code by A. Dal Corso  v.6.2.2
     Using radial grid of 1283 points,  6 beta functions with: 
                l(1) =   0
                l(2) =   0
                l(3) =   1
                l(4) =   1
                l(5) =   2
                l(6) =   2
     Q(r) pseudized with 0 coefficients 


     PseudoPot. # 2 for V  read from file:
     /home/uezono/pseudo/V.pbe-n-van.UPF
     MD5 check sum: ff5646be6093ca757d9525862f4bfff1
     Pseudo is Ultrasoft + core correction, Zval =  5.0
     Generated by new atomic code, or converted to UPF format
     Using radial grid of  853 points,  6 beta functions with: 
                l(1) =   0
                l(2) =   0
                l(3) =   1
                l(4) =   1
                l(5) =   2
                l(6) =   2
     Q(r) pseudized with  8 coefficients,  rinner =    1.000   1.000   1.000
                                                       1.000   1.000

     PseudoPot. # 3 for O  read from file:
     /home/uezono/pseudo/O.pbe-rrkjus.UPF
     MD5 check sum: fadcf19ee70a498d3030e2e79cf929a4
     Pseudo is Ultrasoft, Zval =  6.0
     Generated by new atomic code, or converted to UPF format
     Using radial grid of 1269 points,  4 beta functions with: 
                l(1) =   0
                l(2) =   0
                l(3) =   1
                l(4) =   1
     Q(r) pseudized with 0 coefficients 


     atomic species   valence    mass     pseudopotential
        Bi            15.00   208.98040     Bi( 1.00)
        V              5.00    50.94150     V ( 1.00)
        O              6.00    15.99940     O ( 1.00)

     No symmetry found



   Cartesian axes

     site n.     atom                  positions (alat units)
         1           Bi  tau(   1) = (   0.2478997   0.3678808   0.1512056  )
         2           Bi  tau(   2) = (   0.7475177   0.3675039   0.1503395  )
         3           Bi  tau(   3) = (   0.2442079   0.8575091   0.1503395  )
         4           Bi  tau(   4) = (   0.7442079   0.8575091   0.1503395  )
         5           Bi  tau(   5) = (   0.4958628   0.6125065   0.7134087  )
         6           Bi  tau(   6) = (   0.9958628   0.6125065   0.7134087  )
         7           Bi  tau(   7) = (   0.4925531   1.1025117   0.7134087  )
         8           Bi  tau(   8) = (   0.9925531   1.1025117   0.7134087  )
         9           Bi  tau(   9) = (   0.4975177   0.3675039   0.4127297  )
        10           Bi  tau(  10) = (   0.9975177   0.3675039   0.4127297  )
        11           Bi  tau(  11) = (   0.4942079   0.8575091   0.4127297  )
        12           Bi  tau(  12) = (   0.9942079   0.8575091   0.4127297  )
        13           Bi  tau(  13) = (   0.7458628   0.6125065   0.9757990  )
        14           Bi  tau(  14) = (   1.2458628   0.6125065   0.9757990  )
        15           Bi  tau(  15) = (   0.7425531   1.1025117   0.9757990  )
        16           Bi  tau(  16) = (   1.2425531   1.1025117   0.9757990  )
        17           V   tau(  17) = (   0.4991726   0.1225013   0.1463980  )
        18           V   tau(  18) = (   0.9991726   0.1225013   0.1463980  )
        19           V   tau(  19) = (   0.4958628   0.6125065   0.1463980  )
        20           V   tau(  20) = (   0.9958628   0.6125065   0.1463980  )
        21           V   tau(  21) = (   0.7475177   0.3675039   0.7094672  )
        22           V   tau(  22) = (   1.2475177   0.3675039   0.7094672  )
        23           V   tau(  23) = (   0.7442079   0.8575091   0.7094672  )
        24           V   tau(  24) = (   1.2442079   0.8575091   0.7094672  )
        25           V   tau(  25) = (   0.2458628   0.6125065   0.4166712  )
        26           V   tau(  26) = (   0.7458628   0.6125065   0.4166712  )
        27           V   tau(  27) = (   0.2425531   1.1025117   0.4166712  )
        28           V   tau(  28) = (   0.7425531   1.1025117   0.4166712  )
        29           V   tau(  29) = (   0.4942079   0.8575091   0.9797404  )
        30           V   tau(  30) = (   0.9942079   0.8575091   0.9797404  )
        31           V   tau(  31) = (   0.4908982   1.3475143   0.9797404  )
        32           V   tau(  32) = (   0.9908982   1.3475143   0.9797404  )
        33           O   tau(  33) = (   0.5715696   0.2487756   0.2344620  )
        34           O   tau(  34) = (   1.0715696   0.2487756   0.2344620  )
        35           O   tau(  35) = (   0.5682599   0.7387808   0.2344620  )
        36           O   tau(  36) = (   1.0682599   0.7387808   0.2344620  )
        37           O   tau(  37) = (   0.8199148   0.4937782   0.7975312  )
        38           O   tau(  38) = (   1.3199148   0.4937782   0.7975312  )
        39           O   tau(  39) = (   0.8166050   0.9837834   0.7975312  )
        40           O   tau(  40) = (   1.3166050   0.9837834   0.7975312  )
        41           O   tau(  41) = (   0.4234657   0.4862321   0.2344620  )
        42           O   tau(  42) = (   0.9234657   0.4862321   0.2344620  )
        43           O   tau(  43) = (   0.4201560   0.9762373   0.2344620  )
        44           O   tau(  44) = (   0.9201560   0.9762373   0.2344620  )
        45           O   tau(  45) = (   0.6718109   0.7312347   0.7975312  )
        46           O   tau(  46) = (   1.1718109   0.7312347   0.7975312  )
        47           O   tau(  47) = (   0.6685011   1.2212399   0.7975312  )
        48           O   tau(  48) = (   1.1685011   1.2212399   0.7975312  )
        49           O   tau(  49) = (   0.1734657   0.4862321   0.3286072  )
        50           O   tau(  50) = (   0.6734657   0.4862321   0.3286072  )
        51           O   tau(  51) = (   0.1701560   0.9762373   0.3286072  )
        52           O   tau(  52) = (   0.6701560   0.9762373   0.3286072  )
        53           O   tau(  53) = (   0.4218109   0.7312347   0.8916764  )
        54           O   tau(  54) = (   0.9218109   0.7312347   0.8916764  )
        55           O   tau(  55) = (   0.4185011   1.2212399   0.8916764  )
        56           O   tau(  56) = (   0.9185011   1.2212399   0.8916764  )
        57           O   tau(  57) = (   0.3215696   0.2487756   0.3286072  )
        58           O   tau(  58) = (   0.8215696   0.2487756   0.3286072  )
        59           O   tau(  59) = (   0.3182599   0.7387808   0.3286072  )
        60           O   tau(  60) = (   0.8182599   0.7387808   0.3286072  )
        61           O   tau(  61) = (   0.5699148   0.4937782   0.8916764  )
        62           O   tau(  62) = (   1.0699148   0.4937782   0.8916764  )
        63           O   tau(  63) = (   0.5666050   0.9837834   0.8916764  )
        64           O   tau(  64) = (   1.0666050   0.9837834   0.8916764  )
        65           O   tau(  65) = (   0.6257292   0.6766972   0.5059740  )
        66           O   tau(  66) = (   1.1257292   0.6766972   0.5059740  )
        67           O   tau(  67) = (   0.6224195   1.1667024   0.5059740  )
        68           O   tau(  68) = (   1.1224195   1.1667024   0.5059740  )
        69           O   tau(  69) = (   0.8740744   0.9216998   1.0690432  )
        70           O   tau(  70) = (   1.3740744   0.9216998   1.0690432  )
        71           O   tau(  71) = (   0.8707646   1.4117049   1.0690432  )
        72           O   tau(  72) = (   1.3707646   1.4117049   1.0690432  )
        73           O   tau(  73) = (   0.3659964   0.5483158   0.5059740  )
        74           O   tau(  74) = (   0.8659964   0.5483158   0.5059740  )
        75           O   tau(  75) = (   0.3626866   1.0383210   0.5059740  )
        76           O   tau(  76) = (   0.8626866   1.0383210   0.5059740  )
        77           O   tau(  77) = (   0.6143415   0.7933184   1.0690432  )
        78           O   tau(  78) = (   1.1143415   0.7933184   1.0690432  )
        79           O   tau(  79) = (   0.6110318   1.2833236   1.0690432  )
        80           O   tau(  80) = (   1.1110318   1.2833236   1.0690432  )
        81           O   tau(  81) = (   0.1193061   0.0583106   0.0570952  )
        82           O   tau(  82) = (   0.6193061   0.0583106   0.0570952  )
        83           O   tau(  83) = (   0.1159964   0.5483158   0.0570952  )
        84           O   tau(  84) = (   0.6159964   0.5483158   0.0570952  )
        85           O   tau(  85) = (   0.3676513   0.3033132   0.6201644  )
        86           O   tau(  86) = (   0.8676513   0.3033132   0.6201644  )
        87           O   tau(  87) = (   0.3643415   0.7933184   0.6201644  )
        88           O   tau(  88) = (   0.8643415   0.7933184   0.6201644  )
        89           O   tau(  89) = (   0.3790390   0.1866920   0.0570952  )
        90           O   tau(  90) = (   0.8790390   0.1866920   0.0570952  )
        91           O   tau(  91) = (   0.3757292   0.6766972   0.0570952  )
        92           O   tau(  92) = (   0.8757292   0.6766972   0.0570952  )
        93           O   tau(  93) = (   0.6273841   0.4316946   0.6201644  )
        94           O   tau(  94) = (   1.1273841   0.4316946   0.6201644  )
        95           O   tau(  95) = (   0.6240744   0.9216998   0.6201644  )
        96           O   tau(  96) = (   1.1240744   0.9216998   0.6201644  )

     number of k points=     4
                       cart. coord. in units 2pi/alat
        k(    1) = (   0.2500000   0.2567880   0.0000000), wk =   0.5000000
        k(    2) = (   0.2500000   0.2567880  -0.4439951), wk =   0.5000000
        k(    3) = (   0.2500000  -0.2534107   0.2219976), wk =   0.5000000
        k(    4) = (  -0.2500000   0.2534107   0.2219976), wk =   0.5000000

     Dense  grid:   660405 G-vectors     FFT dimensions: ( 108, 108, 144)

     Estimated max dynamical RAM per process >       2.39 GB

     Estimated total dynamical RAM >       9.55 GB

     Initial potential from superposition of free atoms

     starting charge  703.96725, renormalised to  704.00000
     Starting wfc are  544 randomized atomic wfcs

     total cpu time spent up to now is      109.1 secs

     Self-consistent Calculation

     iteration #  1     ecut=    70.00 Ry     beta= 0.70
     Davidson diagonalization with overlap
     ethr =  1.00E-02,  avg # of iterations =  1.0

     total cpu time spent up to now is      268.6 secs

     total energy              =   -4949.30863769 Ry
     Harris-Foulkes estimate   =   -4981.29895323 Ry
     estimated scf accuracy    <      40.94387505 Ry

     iteration #  2     ecut=    70.00 Ry     beta= 0.70
     Davidson diagonalization with overlap
     ethr =  5.82E-03,  avg # of iterations =  4.0

     total cpu time spent up to now is      559.5 secs

     total energy              =   -4901.62440594 Ry
     Harris-Foulkes estimate   =   -5036.18355943 Ry
     estimated scf accuracy    <     570.96014574 Ry

     iteration #  3     ecut=    70.00 Ry     beta= 0.70
     Davidson diagonalization with overlap
     ethr =  5.82E-03,  avg # of iterations =  6.2

     total cpu time spent up to now is      863.3 secs

     total energy              =   -4970.00760358 Ry
     Harris-Foulkes estimate   =   -4977.39300511 Ry
     estimated scf accuracy    <      23.92427922 Ry

     iteration #  4     ecut=    70.00 Ry     beta= 0.70
     Davidson diagonalization with overlap
     ethr =  3.40E-03,  avg # of iterations =  2.0

     total cpu time spent up to now is     1060.2 secs

     total energy              =   -4972.11262568 Ry
     Harris-Foulkes estimate   =   -4972.74676916 Ry
     estimated scf accuracy    <       4.39739248 Ry

     iteration #  5     ecut=    70.00 Ry     beta= 0.70
     Davidson diagonalization with overlap
     ethr =  6.25E-04,  avg # of iterations =  2.0

     total cpu time spent up to now is     1223.6 secs

     total energy              =   -4971.79521042 Ry
     Harris-Foulkes estimate   =   -4972.31737198 Ry
     estimated scf accuracy    <       2.08985965 Ry

     iteration #  6     ecut=    70.00 Ry     beta= 0.70
     Davidson diagonalization with overlap
     ethr =  2.97E-04,  avg # of iterations =  3.0

     total cpu time spent up to now is     1427.6 secs

     total energy              =   -4972.08307088 Ry
     Harris-Foulkes estimate   =   -4972.11805274 Ry
     estimated scf accuracy    <       0.06359637 Ry

     iteration #  7     ecut=    70.00 Ry     beta= 0.70
     Davidson diagonalization with overlap
     ethr =  9.03E-06,  avg # of iterations =  4.0

     total cpu time spent up to now is     1689.3 secs

     total energy              =   -4972.09036090 Ry
     Harris-Foulkes estimate   =   -4972.12862419 Ry
     estimated scf accuracy    <       0.12957596 Ry

     iteration #  8     ecut=    70.00 Ry     beta= 0.70
     Davidson diagonalization with overlap
     ethr =  9.03E-06,  avg # of iterations =  3.0

     total cpu time spent up to now is     1924.7 secs

     total energy              =   -4972.09631719 Ry
     Harris-Foulkes estimate   =   -4972.11756482 Ry
     estimated scf accuracy    <       0.06510946 Ry

     iteration #  9     ecut=    70.00 Ry     beta= 0.70
     Davidson diagonalization with overlap
     ethr =  9.03E-06,  avg # of iterations =  3.0

     total cpu time spent up to now is     2155.9 secs

     total energy              =   -4972.10862395 Ry
     Harris-Foulkes estimate   =   -4972.11333947 Ry
     estimated scf accuracy    <       0.02879009 Ry

     iteration # 10     ecut=    70.00 Ry     beta= 0.70
     Davidson diagonalization with overlap
     ethr =  4.09E-06,  avg # of iterations =  2.8

     total cpu time spent up to now is     2331.9 secs

     total energy              =   -4972.10750825 Ry
     Harris-Foulkes estimate   =   -4972.11083302 Ry
     estimated scf accuracy    <       0.01170782 Ry

     iteration # 11     ecut=    70.00 Ry     beta= 0.70
     Davidson diagonalization with overlap
     ethr =  1.66E-06,  avg # of iterations =  3.0

     total cpu time spent up to now is     2536.0 secs

     total energy              =   -4972.10898984 Ry
     Harris-Foulkes estimate   =   -4972.10911597 Ry
     estimated scf accuracy    <       0.00033995 Ry

     iteration # 12     ecut=    70.00 Ry     beta= 0.70
     Davidson diagonalization with overlap
     ethr =  4.83E-08,  avg # of iterations =  4.0

     total cpu time spent up to now is     2782.5 secs

     total energy              =   -4972.10907248 Ry
     Harris-Foulkes estimate   =   -4972.10913506 Ry
     estimated scf accuracy    <       0.00023812 Ry

     iteration # 13     ecut=    70.00 Ry     beta= 0.70
     Davidson diagonalization with overlap
     ethr =  3.38E-08,  avg # of iterations =  3.0

     total cpu time spent up to now is     2998.0 secs

     total energy              =   -4972.10909080 Ry
     Harris-Foulkes estimate   =   -4972.10911302 Ry
     estimated scf accuracy    <       0.00008248 Ry

     iteration # 14     ecut=    70.00 Ry     beta= 0.70
     Davidson diagonalization with overlap
     ethr =  1.17E-08,  avg # of iterations =  3.0

     total cpu time spent up to now is     3210.2 secs

     total energy              =   -4972.10909998 Ry
     Harris-Foulkes estimate   =   -4972.10910323 Ry
     estimated scf accuracy    <       0.00000839 Ry

     iteration # 15     ecut=    70.00 Ry     beta= 0.70
     Davidson diagonalization with overlap
     ethr =  1.19E-09,  avg # of iterations =  3.5

     total cpu time spent up to now is     3462.5 secs

     total energy              =   -4972.10910009 Ry
     Harris-Foulkes estimate   =   -4972.10910431 Ry
     estimated scf accuracy    <       0.00001546 Ry

     iteration # 16     ecut=    70.00 Ry     beta= 0.70
     Davidson diagonalization with overlap
     ethr =  1.19E-09,  avg # of iterations =  3.0

     total cpu time spent up to now is     3692.4 secs

     total energy              =   -4972.10910196 Ry
     Harris-Foulkes estimate   =   -4972.10910220 Ry
     estimated scf accuracy    <       0.00000050 Ry

     iteration # 17     ecut=    70.00 Ry     beta= 0.70
     Davidson diagonalization with overlap
     ethr =  7.14E-11,  avg # of iterations =  3.5

     total cpu time spent up to now is     3942.0 secs

     total energy              =   -4972.10910202 Ry
     Harris-Foulkes estimate   =   -4972.10910227 Ry
     estimated scf accuracy    <       0.00000105 Ry

     iteration # 18     ecut=    70.00 Ry     beta= 0.70
     Davidson diagonalization with overlap
     ethr =  7.14E-11,  avg # of iterations =  3.0

     total cpu time spent up to now is     4178.1 secs

     total energy              =   -4972.10910212 Ry
     Harris-Foulkes estimate   =   -4972.10910217 Ry
     estimated scf accuracy    <       0.00000018 Ry

     iteration # 19     ecut=    70.00 Ry     beta= 0.70
     Davidson diagonalization with overlap
     ethr =  2.61E-11,  avg # of iterations =  3.0

     total cpu time spent up to now is     4391.2 secs

     total energy              =   -4972.10910215 Ry
     Harris-Foulkes estimate   =   -4972.10910215 Ry
     estimated scf accuracy    <       0.00000002 Ry

     iteration # 20     ecut=    70.00 Ry     beta= 0.70
     Davidson diagonalization with overlap
     ethr =  2.93E-12,  avg # of iterations =  3.0

     total cpu time spent up to now is     4626.2 secs

     total energy              =   -4972.10910215 Ry
     Harris-Foulkes estimate   =   -4972.10910215 Ry
     estimated scf accuracy    <       0.00000001 Ry

     iteration # 21     ecut=    70.00 Ry     beta= 0.70
     Davidson diagonalization with overlap
     ethr =  1.58E-12,  avg # of iterations =  3.0

     total cpu time spent up to now is     4849.4 secs

     total energy              =   -4972.10910215 Ry
     Harris-Foulkes estimate   =   -4972.10910215 Ry
     estimated scf accuracy    <          2.6E-09 Ry

     iteration # 22     ecut=    70.00 Ry     beta= 0.70
     Davidson diagonalization with overlap
     ethr =  3.71E-13,  avg # of iterations =  3.0

     total cpu time spent up to now is     5076.7 secs

     total energy              =   -4972.10910215 Ry
     Harris-Foulkes estimate   =   -4972.10910215 Ry
     estimated scf accuracy    <          1.0E-09 Ry

     iteration # 23     ecut=    70.00 Ry     beta= 0.70
     Davidson diagonalization with overlap
     ethr =  1.44E-13,  avg # of iterations =  3.0

     total cpu time spent up to now is     5300.1 secs

     End of self-consistent calculation

          k = 0.2500 0.2568 0.0000 ( 82568 PWs)   bands (ev):

   -14.4887 -14.4873 -14.4859 -14.4854 -14.4843 -14.4827 -14.4821 -14.4812
   -14.4781 -14.4699 -14.4683 -14.4668 -14.4637 -14.4634 -14.4591 -14.4569
   -14.4524 -14.4503 -14.4482 -14.4365 -14.4337 -14.4322 -14.4295 -14.4251
   -14.4233 -14.4135 -14.4112 -14.4065 -14.4056 -14.4055 -14.4036 -14.4024
   -14.4017 -14.3997 -14.3986 -14.3984 -14.3972 -14.3959 -14.3952 -14.3946
   -14.3933 -14.3926 -14.3923 -14.3919 -14.3905 -14.3903 -14.3897 -14.3886
   -14.3875 -14.3852 -14.3846 -14.3826 -14.3817 -14.3800 -14.3794 -14.3793
   -14.3783 -14.3744 -14.3727 -14.3698 -14.3686 -14.3664 -14.3635 -14.3615
   -14.3601 -14.3597 -14.3583 -14.3574 -14.3560 -14.3528 -14.3522 -14.3515
   -14.3500 -14.3488 -14.3472 -14.3458 -14.3453 -14.3423 -14.3402 -14.3362
   -10.4972 -10.2983 -10.1714 -10.1642 -10.1247 -10.1184  -9.9314  -9.8074
    -9.6767  -9.6091  -9.6031  -9.6023  -9.5976  -9.5465  -9.4712  -9.3948
    -9.3604  -9.3227  -9.3184  -9.3141  -9.3012  -9.2803  -9.2781  -9.2535
    -9.2437  -9.1723  -9.1499  -9.1178  -9.1123  -9.0861  -9.0823  -9.0666
    -9.0630  -9.0429  -9.0411  -9.0384  -8.9756  -8.9719  -8.9529  -8.9445
    -8.9377  -8.9327  -8.9236  -8.8995  -8.8948  -8.8899  -8.8881  -8.8637
    -8.8268  -8.8250  -8.8223  -8.8208  -8.8201  -8.8050  -8.7850  -8.7816
    -8.7752  -8.7533  -8.7135  -8.7061  -8.7008  -8.6880  -8.6823  -8.6577
    -2.2091  -2.0761  -2.0724  -1.9661  -1.9037  -1.9002  -1.8937  -1.7951
    -1.5981  -1.5539  -1.5507  -1.5040  -1.4726  -1.3598  -1.3571  -1.3052
     2.4202   2.4640   2.4952   2.5003   2.5537   2.5545   2.6750   2.7341
     2.7361   2.7390   2.7495   2.7512   2.7635   2.7702   2.7753   2.8342
     2.8364   2.9402   2.9530   2.9744   2.9765   3.0046   3.1135   3.1792
     3.1820   3.2218   3.2493   3.2536   3.2805   3.3612   3.3864   3.3868
     3.4152   3.4209   3.4229   3.5342   3.5350   3.6269   3.6428   3.7099
     3.7130   3.7681   3.7771   3.7909   3.8959   3.8972   3.8987   3.9703
     3.9952   4.0188   4.0269   4.0414   4.0421   4.0440   4.0457   4.1460
     4.1862   4.2082   4.2108   4.2348   4.2385   4.2411   4.2448   4.2677
     4.2835   4.2871   4.2995   4.3513   4.3645   4.3681   4.3724   4.3760
     4.3824   4.3833   4.4046   4.4081   4.4410   4.4860   4.4919   4.4942
     4.5343   4.5386   4.6127   4.6337   4.6350   4.6430   4.6474   4.6721
     4.6744   4.6801   4.6966   4.7011   4.7141   4.7220   4.7664   4.7690
     4.7717   4.8414   4.8607   4.8622   4.9185   4.9346   5.0015   5.0073
     5.0089   5.0552   5.0566   5.0921   5.0938   5.1129   5.1229   5.1236
     5.1453   5.1466   5.2152   5.2735   5.2859   5.2872   5.2885   5.3619
     5.3683   5.3691   5.3933   5.3986   5.4237   5.5198   5.5211   5.5457
     5.6500   5.7451   5.7472   5.7523   5.8371   5.8536   5.8540   5.8699
     5.8908   5.9898   5.9926   5.9936   6.0044   6.0645   6.0657   6.1333
     6.1358   6.1556   6.2483   6.2701   6.2729   6.2733   6.2748   6.2760
     6.2844   6.2862   6.2960   6.4099   6.4120   6.4145   6.4201   6.4239
     6.4620   6.4654   6.4731   6.4745   6.4926   6.5828   6.5883   6.5932
     6.6961   6.6983   6.7254   6.7901   6.7930   6.7951   6.8128   6.8663
     6.8738   6.8785   6.8794   6.9329   6.9411   6.9458   6.9490   6.9891
     6.9918   7.0641   7.1488   7.2877   7.2905   7.3680   7.3712   7.4773

          k = 0.2500 0.2568-0.4440 ( 82488 PWs)   bands (ev):

   -14.4889 -14.4867 -14.4859 -14.4857 -14.4854 -14.4830 -14.4824 -14.4784
   -14.4753 -14.4747 -14.4719 -14.4609 -14.4586 -14.4575 -14.4566 -14.4555
   -14.4537 -14.4528 -14.4509 -14.4494 -14.4352 -14.4329 -14.4306 -14.4231
   -14.4203 -14.4169 -14.4146 -14.4139 -14.4076 -14.4057 -14.4048 -14.4023
   -14.3998 -14.3996 -14.3986 -14.3980 -14.3979 -14.3969 -14.3956 -14.3952
   -14.3934 -14.3922 -14.3914 -14.3908 -14.3900 -14.3891 -14.3882 -14.3853
   -14.3845 -14.3836 -14.3832 -14.3825 -14.3794 -14.3764 -14.3741 -14.3724
   -14.3713 -14.3709 -14.3707 -14.3705 -14.3701 -14.3696 -14.3680 -14.3674
   -14.3624 -14.3617 -14.3603 -14.3563 -14.3546 -14.3534 -14.3525 -14.3516
   -14.3509 -14.3494 -14.3484 -14.3475 -14.3473 -14.3421 -14.3401 -14.3357
   -10.4170 -10.4103 -10.2257 -10.1959 -10.1005 -10.0207  -9.8788  -9.8723
    -9.6778  -9.6012  -9.5602  -9.5174  -9.5120  -9.5068  -9.4922  -9.4883
    -9.4409  -9.4389  -9.3960  -9.3910  -9.2305  -9.2281  -9.2234  -9.1977
    -9.1931  -9.1707  -9.1673  -9.1514  -9.1409  -9.1396  -9.1242  -9.0872
    -9.0688  -9.0645  -9.0500  -8.9819  -8.9751  -8.9649  -8.9112  -8.9076
    -8.9004  -8.8980  -8.8949  -8.8910  -8.8870  -8.8811  -8.8773  -8.8724
    -8.8520  -8.8398  -8.8321  -8.8284  -8.8165  -8.8147  -8.8001  -8.7869
    -8.7839  -8.7640  -8.7188  -8.6966  -8.6923  -8.6866  -8.6822  -8.6794
    -2.1228  -2.1014  -2.0975  -2.0230  -1.9820  -1.8531  -1.8496  -1.7735
    -1.6576  -1.5455  -1.5424  -1.4959  -1.3899  -1.3786  -1.3756  -1.3302
     2.4943   2.5002   2.5651   2.5670   2.5710   2.5714   2.6229   2.6601
     2.6633   2.7243   2.7263   2.7477   2.7532   2.7766   2.8675   2.8688
     2.8698   2.8735   2.8769   2.8806   2.9137   3.0340   3.0927   3.1342
     3.1401   3.1414   3.2559   3.2591   3.2716   3.2850   3.2969   3.2991
     3.3724   3.4347   3.4606   3.4616   3.6021   3.6044   3.6714   3.7703
     3.7987   3.8282   3.9025   3.9045   3.9854   3.9871   4.0143   4.0357
     4.0468   4.0662   4.0839   4.0946   4.1157   4.1189   4.1498   4.1695
     4.1704   4.2029   4.2212   4.2222   4.2233   4.2372   4.2643   4.2836
     4.2867   4.2970   4.2980   4.2990   4.3198   4.3378   4.3398   4.3416
     4.4069   4.4293   4.4321   4.4336   4.4725   4.4739   4.4750   4.4781
     4.4807   4.4829   4.5264   4.5325   4.5498   4.5532   4.6022   4.6246
     4.6254   4.6406   4.6854   4.6865   4.7296   4.7928   4.8218   4.8232
     4.8320   4.8332   4.8648   4.8771   4.8796   4.8856   4.8868   4.8969
     4.8984   4.9909   5.0349   5.0392   5.0925   5.1062   5.1161   5.1528
     5.1637   5.1661   5.2042   5.2254   5.2452   5.2467   5.2549   5.2750
     5.3073   5.3363   5.3371   5.4453   5.4703   5.5696   5.5714   5.6569
     5.7133   5.7955   5.7994   5.8016   5.8122   5.8862   5.8869   5.9159
     5.9797   6.0121   6.0301   6.0319   6.0558   6.0662   6.0672   6.0689
     6.1150   6.1607   6.1693   6.1711   6.1878   6.2012   6.2037   6.2745
     6.3438   6.3547   6.3563   6.4009   6.4037   6.4085   6.4906   6.4926
     6.5018   6.5130   6.5227   6.5268   6.5766   6.5878   6.6163   6.6363
     6.6375   6.6579   6.6841   6.6871   6.7863   6.7898   6.7990   6.8039
     6.8252   6.8796   6.8816   6.9333   6.9361   6.9542   6.9569   6.9715
     7.0238   7.0308   7.0892   7.1804   7.3425   7.3456   7.4400   7.5546

          k = 0.2500-0.2534 0.2220 ( 82555 PWs)   bands (ev):

   -14.4888 -14.4876 -14.4868 -14.4850 -14.4841 -14.4837 -14.4835 -14.4776
   -14.4753 -14.4739 -14.4703 -14.4636 -14.4611 -14.4604 -14.4591 -14.4575
   -14.4539 -14.4507 -14.4475 -14.4426 -14.4357 -14.4316 -14.4281 -14.4257
   -14.4221 -14.4154 -14.4116 -14.4089 -14.4077 -14.4074 -14.4049 -14.4039
   -14.4001 -14.3992 -14.3981 -14.3980 -14.3966 -14.3961 -14.3949 -14.3940
   -14.3933 -14.3925 -14.3911 -14.3907 -14.3903 -14.3898 -14.3889 -14.3883
   -14.3867 -14.3847 -14.3843 -14.3831 -14.3826 -14.3791 -14.3757 -14.3746
   -14.3737 -14.3727 -14.3712 -14.3706 -14.3699 -14.3679 -14.3653 -14.3648
   -14.3618 -14.3608 -14.3567 -14.3563 -14.3560 -14.3549 -14.3520 -14.3510
   -14.3503 -14.3495 -14.3480 -14.3470 -14.3463 -14.3415 -14.3394 -14.3366
   -10.4794 -10.3445 -10.2027 -10.1582 -10.1081 -10.0307  -9.9459  -9.8726
    -9.6920  -9.6126  -9.6079  -9.5900  -9.5742  -9.4730  -9.4137  -9.4094
    -9.4061  -9.3909  -9.3829  -9.3607  -9.2482  -9.2331  -9.2222  -9.2015
    -9.1972  -9.1792  -9.1661  -9.1341  -9.1225  -9.1199  -9.1124  -9.1102
    -9.0629  -9.0576  -9.0565  -9.0231  -9.0211  -9.0099  -8.9367  -8.9358
    -8.9314  -8.9156  -8.9129  -8.8896  -8.8866  -8.8852  -8.8514  -8.8466
    -8.8424  -8.8394  -8.8075  -8.7953  -8.7951  -8.7838  -8.7825  -8.7710
    -8.7680  -8.7624  -8.7580  -8.7313  -8.7103  -8.7029  -8.6755  -8.6482
    -2.1765  -2.1136  -2.0315  -2.0125  -1.9601  -1.8806  -1.8253  -1.8186
    -1.6239  -1.5605  -1.5194  -1.5111  -1.4289  -1.3967  -1.3349  -1.3235
     2.4311   2.4811   2.5227   2.5557   2.5780   2.5788   2.5818   2.6377
     2.6904   2.6994   2.7253   2.7407   2.7824   2.7897   2.8051   2.8399
     2.8421   2.8597   3.0160   3.0332   3.0568   3.0827   3.1168   3.1265
     3.1430   3.1920   3.1938   3.2126   3.2336   3.2538   3.3116   3.3716
     3.5130   3.5264   3.5407   3.5493   3.5763   3.6016   3.6520   3.6562
     3.6876   3.6972   3.8608   3.8734   3.9124   3.9332   3.9449   3.9534
     3.9843   3.9867   4.0117   4.0476   4.0977   4.1150   4.1281   4.1402
     4.1484   4.1957   4.2023   4.2049   4.2115   4.2311   4.2338   4.2415
     4.2492   4.2529   4.2940   4.3076   4.3414   4.3544   4.3572   4.3825
     4.4236   4.4265   4.4333   4.4445   4.4531   4.4681   4.4963   4.5300
     4.5379   4.5403   4.5407   4.5645   4.5723   4.6675   4.6696   4.6818
     4.6886   4.7128   4.7345   4.7381   4.7505   4.7525   4.7568   4.7643
     4.7916   4.7980   4.8717   4.8748   4.8783   4.9041   4.9331   4.9656
     4.9778   4.9982   5.0321   5.0499   5.0934   5.0954   5.1245   5.1775
     5.1848   5.2023   5.2296   5.2566   5.2667   5.2692   5.2959   5.3005
     5.3748   5.3759   5.4495   5.4658   5.5042   5.5402   5.5443   5.6073
     5.6758   5.6877   5.6930   5.7134   5.7223   5.7485   5.8081   5.8544
     5.8892   5.9408   5.9610   5.9758   5.9886   6.0375   6.0484   6.1436
     6.1516   6.2000   6.2269   6.2531   6.2724   6.2754   6.2796   6.3118
     6.3353   6.3536   6.3584   6.3782   6.4237   6.4321   6.4341   6.4785
     6.4792   6.5008   6.5548   6.5674   6.6153   6.6216   6.6622   6.6651
     6.6893   6.6916   6.6940   6.7219   6.7264   6.7320   6.7472   6.7902
     6.8310   6.8692   6.8876   6.9217   6.9370   6.9417   6.9567   6.9796
     6.9818   7.0794   7.1201   7.2383   7.2883   7.3055   7.4633   7.4684

          k =-0.2500 0.2534 0.2220 ( 82555 PWs)   bands (ev):

   -14.4888 -14.4876 -14.4868 -14.4850 -14.4842 -14.4837 -14.4835 -14.4777
   -14.4752 -14.4740 -14.4703 -14.4636 -14.4610 -14.4602 -14.4592 -14.4575
   -14.4540 -14.4508 -14.4475 -14.4426 -14.4357 -14.4316 -14.4281 -14.4257
   -14.4221 -14.4154 -14.4116 -14.4089 -14.4077 -14.4074 -14.4048 -14.4040
   -14.3999 -14.3993 -14.3983 -14.3978 -14.3966 -14.3962 -14.3949 -14.3940
   -14.3933 -14.3925 -14.3911 -14.3907 -14.3902 -14.3901 -14.3888 -14.3882
   -14.3867 -14.3847 -14.3844 -14.3831 -14.3825 -14.3792 -14.3759 -14.3744
   -14.3737 -14.3728 -14.3712 -14.3706 -14.3698 -14.3679 -14.3652 -14.3647
   -14.3618 -14.3607 -14.3567 -14.3562 -14.3559 -14.3551 -14.3521 -14.3507
   -14.3506 -14.3496 -14.3479 -14.3469 -14.3464 -14.3415 -14.3394 -14.3366
   -10.4794 -10.3445 -10.2027 -10.1581 -10.1080 -10.0307  -9.9458  -9.8726
    -9.6918  -9.6124  -9.6087  -9.5902  -9.5739  -9.4730  -9.4139  -9.4094
    -9.4058  -9.3903  -9.3827  -9.3611  -9.2481  -9.2330  -9.2222  -9.2018
    -9.1974  -9.1792  -9.1666  -9.1342  -9.1220  -9.1201  -9.1121  -9.1098
    -9.0631  -9.0576  -9.0562  -9.0236  -9.0212  -9.0099  -8.9366  -8.9356
    -8.9312  -8.9155  -8.9131  -8.8900  -8.8863  -8.8852  -8.8516  -8.8466
    -8.8425  -8.8391  -8.8074  -8.7962  -8.7944  -8.7834  -8.7826  -8.7712
    -8.7679  -8.7625  -8.7577  -8.7314  -8.7102  -8.7029  -8.6755  -8.6481
    -2.1765  -2.1136  -2.0315  -2.0125  -1.9602  -1.8806  -1.8251  -1.8187
    -1.6240  -1.5605  -1.5194  -1.5110  -1.4289  -1.3966  -1.3349  -1.3235
     2.4310   2.4812   2.5229   2.5553   2.5774   2.5790   2.5816   2.6382
     2.6910   2.6991   2.7254   2.7415   2.7825   2.7896   2.8045   2.8397
     2.8422   2.8600   3.0161   3.0329   3.0567   3.0827   3.1171   3.1260
     3.1430   3.1919   3.1942   3.2125   3.2335   3.2539   3.3120   3.3714
     3.5130   3.5260   3.5406   3.5491   3.5761   3.6015   3.6520   3.6559
     3.6878   3.6971   3.8608   3.8738   3.9121   3.9332   3.9453   3.9533
     3.9845   3.9869   4.0118   4.0477   4.0978   4.1149   4.1280   4.1404
     4.1483   4.1953   4.2023   4.2054   4.2119   4.2314   4.2339   4.2414
     4.2491   4.2529   4.2936   4.3078   4.3412   4.3539   4.3573   4.3820
     4.4239   4.4260   4.4330   4.4444   4.4528   4.4684   4.4968   4.5296
     4.5385   4.5398   4.5414   4.5647   4.5726   4.6673   4.6700   4.6818
     4.6886   4.7123   4.7343   4.7386   4.7504   4.7532   4.7569   4.7641
     4.7916   4.7978   4.8718   4.8745   4.8779   4.9046   4.9333   4.9657
     4.9777   4.9981   5.0321   5.0501   5.0931   5.0954   5.1242   5.1778
     5.1849   5.2025   5.2297   5.2566   5.2666   5.2691   5.2959   5.3008
     5.3748   5.3758   5.4493   5.4658   5.5044   5.5399   5.5443   5.6073
     5.6763   5.6875   5.6929   5.7134   5.7223   5.7488   5.8081   5.8543
     5.8889   5.9406   5.9610   5.9758   5.9885   6.0377   6.0481   6.1438
     6.1512   6.1998   6.2270   6.2531   6.2731   6.2748   6.2799   6.3118
     6.3352   6.3535   6.3587   6.3779   6.4238   6.4324   6.4340   6.4783
     6.4797   6.5005   6.5545   6.5676   6.6151   6.6214   6.6621   6.6652
     6.6899   6.6916   6.6936   6.7219   6.7265   6.7320   6.7475   6.7903
     6.8313   6.8691   6.8877   6.9218   6.9372   6.9415   6.9565   6.9796
     6.9818   7.0794   7.1202   7.2382   7.2881   7.3053   7.4634   7.4684

     highest occupied level (ev):     7.5546

!    total energy              =   -4972.10910215 Ry
     Harris-Foulkes estimate   =   -4972.10910215 Ry
     estimated scf accuracy    <          2.9E-10 Ry

     The total energy is the sum of the following terms:

     one-electron contribution =   -1193.29296730 Ry
     hartree contribution      =    1074.22670144 Ry
     xc contribution           =   -1297.70254540 Ry
     ewald contribution        =   -3555.34029089 Ry

     convergence has been achieved in  23 iterations

     Forces acting on atoms (cartesian axes, Ry/au):

     atom    1 type  1   force =    -0.00138684   -0.00128396   -0.01694659
     atom    2 type  1   force =     0.00026042   -0.00014649   -0.01410063
     atom    3 type  1   force =    -0.00015167    0.00026184   -0.01412912
     atom    4 type  1   force =     0.00015159    0.00013497   -0.01401487
     atom    5 type  1   force =     0.00006032    0.00011913   -0.01350367
     atom    6 type  1   force =    -0.00010655    0.00004785   -0.01358952
     atom    7 type  1   force =     0.00010346   -0.00009083   -0.01355938
     atom    8 type  1   force =    -0.00006234   -0.00006747   -0.01363854
     atom    9 type  1   force =     0.00089574   -0.00021375    0.01450509
     atom   10 type  1   force =    -0.00061001   -0.00031573    0.01379335
     atom   11 type  1   force =     0.00013820    0.00012840    0.01391735
     atom   12 type  1   force =    -0.00016693    0.00007814    0.01376057
     atom   13 type  1   force =    -0.00014154    0.00051745    0.01435420
     atom   14 type  1   force =     0.00008823    0.00013065    0.01395804
     atom   15 type  1   force =    -0.00016109   -0.00039004    0.01395274
     atom   16 type  1   force =     0.00012935   -0.00013327    0.01385946
     atom   17 type  2   force =    -0.00047355    0.00013837    0.00386219
     atom   18 type  2   force =     0.00044427    0.00052814    0.00438718
     atom   19 type  2   force =     0.00069639    0.00092290    0.00379144
     atom   20 type  2   force =     0.00019980   -0.00018114    0.00400172
     atom   21 type  2   force =     0.00002238    0.00000983    0.00466297
     atom   22 type  2   force =    -0.00001139    0.00000432    0.00474665
     atom   23 type  2   force =    -0.00004134   -0.00003213    0.00470863
     atom   24 type  2   force =     0.00001250    0.00000407    0.00476594
     atom   25 type  2   force =     0.00036069    0.00108320   -0.00373796
     atom   26 type  2   force =     0.00009871    0.00007631   -0.00449082
     atom   27 type  2   force =    -0.00054072   -0.00074315   -0.00413777
     atom   28 type  2   force =     0.00007950   -0.00002777   -0.00459617
     atom   29 type  2   force =     0.00103549   -0.00053773   -0.00384115
     atom   30 type  2   force =    -0.00047794    0.00013821   -0.00424566
     atom   31 type  2   force =     0.00004159    0.00004801   -0.00451032
     atom   32 type  2   force =    -0.00003094    0.00006424   -0.00456233
     atom   33 type  3   force =    -0.00018270   -0.00098579    0.00043432
     atom   34 type  3   force =    -0.00018910   -0.00130536    0.00053840
     atom   35 type  3   force =    -0.00034013   -0.00152573    0.00006716
     atom   36 type  3   force =    -0.00003913   -0.00119297    0.00035241
     atom   37 type  3   force =    -0.00015755   -0.00136647    0.00002872
     atom   38 type  3   force =    -0.00020916   -0.00136423    0.00006375
     atom   39 type  3   force =    -0.00014057   -0.00126375    0.00009306
     atom   40 type  3   force =    -0.00020396   -0.00128616    0.00007740
     atom   41 type  3   force =    -0.00017278    0.00157379    0.00098711
     atom   42 type  3   force =    -0.00034917    0.00159083    0.00043682
     atom   43 type  3   force =    -0.00046437    0.00152119    0.00040363
     atom   44 type  3   force =    -0.00042302    0.00151514    0.00036816
     atom   45 type  3   force =    -0.00032831    0.00171654    0.00005033
     atom   46 type  3   force =    -0.00033869    0.00172380    0.00011012
     atom   47 type  3   force =    -0.00033039    0.00174546    0.00013483
     atom   48 type  3   force =    -0.00030545    0.00176517    0.00012648
     atom   49 type  3   force =    -0.00001712    0.00120867    0.00006357
     atom   50 type  3   force =    -0.00003671    0.00123180   -0.00015481
     atom   51 type  3   force =     0.00030064    0.00144489    0.00002513
     atom   52 type  3   force =     0.00013238    0.00126356   -0.00011201
     atom   53 type  3   force =    -0.00000900    0.00099139   -0.00043816
     atom   54 type  3   force =     0.00014774    0.00116212   -0.00031870
     atom   55 type  3   force =     0.00014938    0.00126162   -0.00022419
     atom   56 type  3   force =     0.00021428    0.00130043   -0.00020652
     atom   57 type  3   force =     0.00076438   -0.00134647    0.00001088
     atom   58 type  3   force =     0.00036097   -0.00165892   -0.00011016
     atom   59 type  3   force =     0.00024394   -0.00204257   -0.00005305
     atom   60 type  3   force =     0.00030606   -0.00173314   -0.00014963
     atom   61 type  3   force =     0.00027874   -0.00174881   -0.00027984
     atom   62 type  3   force =     0.00030986   -0.00171616   -0.00026665
     atom   63 type  3   force =     0.00049744   -0.00135514   -0.00046073
     atom   64 type  3   force =     0.00042030   -0.00155017   -0.00034840
     atom   65 type  3   force =    -0.00875393    0.00538381    0.00540021
     atom   66 type  3   force =    -0.00846254    0.00516127    0.00521608
     atom   67 type  3   force =    -0.00885481    0.00548125    0.00543763
     atom   68 type  3   force =    -0.00848062    0.00528413    0.00531162
     atom   69 type  3   force =    -0.00831847    0.00537461    0.00527796
     atom   70 type  3   force =    -0.00910498    0.00555478    0.00568408
     atom   71 type  3   force =    -0.00870266    0.00526305    0.00548992
     atom   72 type  3   force =    -0.00877308    0.00536134    0.00547827
     atom   73 type  3   force =     0.00815908   -0.00502444    0.00522094
     atom   74 type  3   force =     0.00839798   -0.00509299    0.00543706
     atom   75 type  3   force =     0.00824714   -0.00497539    0.00529284
     atom   76 type  3   force =     0.00840738   -0.00509394    0.00544633
     atom   77 type  3   force =     0.00774541   -0.00482491    0.00487817
     atom   78 type  3   force =     0.00854764   -0.00511476    0.00557704
     atom   79 type  3   force =     0.00842264   -0.00506205    0.00548938
     atom   80 type  3   force =     0.00841079   -0.00512079    0.00552553
     atom   81 type  3   force =     0.00871755   -0.00556452   -0.00537957
     atom   82 type  3   force =     0.00884160   -0.00544797   -0.00548268
     atom   83 type  3   force =     0.00848243   -0.00503047   -0.00510117
     atom   84 type  3   force =     0.00839354   -0.00520325   -0.00521453
     atom   85 type  3   force =     0.00877972   -0.00536674   -0.00560379
     atom   86 type  3   force =     0.00879704   -0.00539148   -0.00553896
     atom   87 type  3   force =     0.00876701   -0.00540084   -0.00557123
     atom   88 type  3   force =     0.00880153   -0.00540853   -0.00552538
     atom   89 type  3   force =    -0.00783494    0.00482797   -0.00502735
     atom   90 type  3   force =    -0.00853173    0.00509881   -0.00543766
     atom   91 type  3   force =    -0.00815439    0.00491599   -0.00519108
     atom   92 type  3   force =    -0.00849477    0.00514798   -0.00548268
     atom   93 type  3   force =    -0.00848967    0.00509205   -0.00559397
     atom   94 type  3   force =    -0.00840342    0.00510746   -0.00557403
     atom   95 type  3   force =    -0.00847310    0.00511625   -0.00556218
     atom   96 type  3   force =    -0.00842999    0.00510515   -0.00554923

     Total force =     0.087738     Total SCF correction =     0.000052


     Computing stress (Cartesian axis) and pressure

          total   stress  (Ry/bohr**3)                   (kbar)     P=   40.66
   0.00029142   0.00000217   0.00000005         42.87      0.32      0.01
   0.00000217   0.00026742  -0.00000010          0.32     39.34     -0.01
   0.00000005  -0.00000010   0.00027043          0.01     -0.01     39.78


     init_run     :    106.72s CPU    108.76s WALL (       1 calls)
     electrons    :   5098.75s CPU   5191.03s WALL (       1 calls)
     forces       :     34.57s CPU     35.10s WALL (       1 calls)
     stress       :    300.74s CPU    301.81s WALL (       1 calls)

     Called by init_run:
     wfcinit      :     93.16s CPU     94.91s WALL (       1 calls)
     potinit      :      4.49s CPU      4.51s WALL (       1 calls)

     Called by electrons:
     c_bands      :   4403.00s CPU   4475.22s WALL (      23 calls)
     sum_band     :    658.63s CPU    672.71s WALL (      23 calls)
     v_of_rho     :      9.36s CPU      9.64s WALL (      24 calls)
     newd         :     26.50s CPU     32.45s WALL (      24 calls)
     mix_rho      :      2.47s CPU      2.51s WALL (      23 calls)

     Called by c_bands:
     init_us_2    :     26.04s CPU     26.05s WALL (     196 calls)
     cegterg      :   4327.94s CPU   4400.07s WALL (      92 calls)

     Called by sum_band:
     sum_band:bec :      0.19s CPU      0.20s WALL (      92 calls)
     addusdens    :     37.72s CPU     43.95s WALL (      23 calls)

     Called by *egterg:
     h_psi        :   3179.34s CPU   3222.83s WALL (     384 calls)
     s_psi        :    326.09s CPU    326.10s WALL (     384 calls)
     g_psi        :      5.70s CPU      5.71s WALL (     288 calls)
     cdiaghg      :    140.64s CPU    140.68s WALL (     380 calls)

     Called by h_psi:
     h_psi:pot    :   3161.32s CPU   3204.63s WALL (     384 calls)
     h_psi:calbec :    307.75s CPU    307.95s WALL (     384 calls)
     vloc_psi     :   2526.10s CPU   2569.18s WALL (     384 calls)
     add_vuspsi   :    327.47s CPU    327.50s WALL (     384 calls)

     General routines
     calbec       :    435.29s CPU    435.54s WALL (     496 calls)
     fft          :      8.34s CPU      8.85s WALL (     336 calls)
     fftw         :   2566.95s CPU   2617.03s WALL (  221794 calls)

     Parallel routines
     fft_scatt_xy :    427.21s CPU    427.40s WALL (  222130 calls)
     fft_scatt_yz :    479.17s CPU    506.33s WALL (  222130 calls)

     PWSCF        :     1h32m CPU        1h33m WALL


   This run was terminated on:  16:45:33  27Oct2021            

=------------------------------------------------------------------------------=
   JOB DONE.
=------------------------------------------------------------------------------=
Note: The following floating-point exceptions are signalling: IEEE_DIVIDE_BY_ZERO
Note: The following floating-point exceptions are signalling: IEEE_DIVIDE_BY_ZERO IEEE_UNDERFLOW_FLAG IEEE_DENORMAL
Note: The following floating-point exceptions are signalling: IEEE_DIVIDE_BY_ZERO
Note: The following floating-point exceptions are signalling: IEEE_DIVIDE_BY_ZERO
