
     Program PWSCF v.6.2 (svn rev. 13949:13950) starts on 28Oct2021 at  1:56:57 

     This program is part of the open-source Quantum ESPRESSO suite
     for quantum simulation of materials; please cite
         "P. Giannozzi et al., J. Phys.:Condens. Matter 21 395502 (2009);
         "P. Giannozzi et al., J. Phys.:Condens. Matter 29 465901 (2017);
          URL http://www.quantum-espresso.org", 
     in publications or presentations arising from this work. More details at
     http://www.quantum-espresso.org/quote

     Parallel version (MPI), running on     4 processors

     MPI processes distributed on     1 nodes
     R & G space division:  proc/nbgrp/npool/nimage =       4
     Reading input from headeradd_supercell-008.in

     Current dimensions of program PWSCF are:
     Max number of different atomic species (ntypx) = 10
     Max number of k-points (npk) =  40000
     Max angular momentum in pseudopotentials (lmaxx) =  3
     Message from routine iosys:
     minimal I/O required, wf_collect reset to FALSE
               file Bi.pbe-dn-rrkjus_psl.1.0.0.UPF: wavefunction(s)  5D renormalized
               file O.pbe-rrkjus.UPF: wavefunction(s)  2S renormalized

     Subspace diagonalization in iterative solution of the eigenvalue problem:
     a serial algorithm will be used


     Parallelization info
     --------------------
     sticks:   dense  smooth     PW     G-vecs:    dense   smooth      PW
     Min        2104    2104    550               165101   165101   22036
     Max        2105    2105    551               165102   165102   22038
     Sum        8417    8417   2201               660405   660405   88147



     bravais-lattice index     =            0
     lattice parameter (alat)  =      19.6286  a.u.
     unit-cell volume          =    8346.2129 (a.u.)^3
     number of atoms/cell      =           96
     number of atomic types    =            3
     number of electrons       =       704.00
     number of Kohn-Sham states=          352
     kinetic-energy cutoff     =      70.0000  Ry
     charge density cutoff     =     280.0000  Ry
     convergence threshold     =      1.0E-09
     mixing beta               =       0.7000
     number of iterations used =            8  plain     mixing
     Exchange-correlation      =  SLA  PW   PBE  PBE ( 1  4  3  4 0 0)

     celldm(1)=  19.628585  celldm(2)=   0.000000  celldm(3)=   0.000000
     celldm(4)=   0.000000  celldm(5)=   0.000000  celldm(6)=   0.000000

     crystal axes: (cart. coord. in units of alat)
               a(1) = (   1.000000   0.000000   0.000000 )  
               a(2) = (  -0.006620   0.980010   0.000000 )  
               a(3) = (   0.496690   0.490005   1.126138 )  

     reciprocal axes: (cart. coord. in units 2 pi/alat)
               b(1) = (  1.000000  0.006755 -0.443995 )  
               b(2) = (  0.000000  1.020397 -0.443995 )  
               b(3) = (  0.000000 -0.000000  0.887990 )  


     PseudoPot. # 1 for Bi read from file:
     /home/uezono/pseudo/Bi.pbe-dn-rrkjus_psl.1.0.0.UPF
     MD5 check sum: f9abe7488ae443f53c935a63d0032572
     Pseudo is Ultrasoft + core correction, Zval = 15.0
     Generated using "atomic" code by A. Dal Corso  v.6.2.2
     Using radial grid of 1283 points,  6 beta functions with: 
                l(1) =   0
                l(2) =   0
                l(3) =   1
                l(4) =   1
                l(5) =   2
                l(6) =   2
     Q(r) pseudized with 0 coefficients 


     PseudoPot. # 2 for V  read from file:
     /home/uezono/pseudo/V.pbe-n-van.UPF
     MD5 check sum: ff5646be6093ca757d9525862f4bfff1
     Pseudo is Ultrasoft + core correction, Zval =  5.0
     Generated by new atomic code, or converted to UPF format
     Using radial grid of  853 points,  6 beta functions with: 
                l(1) =   0
                l(2) =   0
                l(3) =   1
                l(4) =   1
                l(5) =   2
                l(6) =   2
     Q(r) pseudized with  8 coefficients,  rinner =    1.000   1.000   1.000
                                                       1.000   1.000

     PseudoPot. # 3 for O  read from file:
     /home/uezono/pseudo/O.pbe-rrkjus.UPF
     MD5 check sum: fadcf19ee70a498d3030e2e79cf929a4
     Pseudo is Ultrasoft, Zval =  6.0
     Generated by new atomic code, or converted to UPF format
     Using radial grid of 1269 points,  4 beta functions with: 
                l(1) =   0
                l(2) =   0
                l(3) =   1
                l(4) =   1
     Q(r) pseudized with 0 coefficients 


     atomic species   valence    mass     pseudopotential
        Bi            15.00   208.98040     Bi( 1.00)
        V              5.00    50.94150     V ( 1.00)
        O              6.00    15.99940     O ( 1.00)

     No symmetry found



   Cartesian axes

     site n.     atom                  positions (alat units)
         1           Bi  tau(   1) = (   0.2475177   0.3675039   0.1503395  )
         2           Bi  tau(   2) = (   0.7475177   0.3675039   0.1503395  )
         3           Bi  tau(   3) = (   0.2442079   0.8575091   0.1503395  )
         4           Bi  tau(   4) = (   0.7442079   0.8575091   0.1503395  )
         5           Bi  tau(   5) = (   0.4958628   0.6125065   0.7134087  )
         6           Bi  tau(   6) = (   0.9958628   0.6125065   0.7134087  )
         7           Bi  tau(   7) = (   0.4925531   1.1025117   0.7134087  )
         8           Bi  tau(   8) = (   0.9925531   1.1025117   0.7134087  )
         9           Bi  tau(   9) = (   0.4975177   0.3675039   0.4127297  )
        10           Bi  tau(  10) = (   0.9975177   0.3675039   0.4127297  )
        11           Bi  tau(  11) = (   0.4942079   0.8575091   0.4127297  )
        12           Bi  tau(  12) = (   0.9942079   0.8575091   0.4127297  )
        13           Bi  tau(  13) = (   0.7458628   0.6125065   0.9757990  )
        14           Bi  tau(  14) = (   1.2458628   0.6125065   0.9757990  )
        15           Bi  tau(  15) = (   0.7425531   1.1025117   0.9757990  )
        16           Bi  tau(  16) = (   1.2425531   1.1025117   0.9757990  )
        17           V   tau(  17) = (   0.4991726   0.1225013   0.1463980  )
        18           V   tau(  18) = (   0.9991726   0.1225013   0.1463980  )
        19           V   tau(  19) = (   0.4958628   0.6125065   0.1463980  )
        20           V   tau(  20) = (   0.9958628   0.6125065   0.1463980  )
        21           V   tau(  21) = (   0.7475177   0.3675039   0.7094672  )
        22           V   tau(  22) = (   1.2475177   0.3675039   0.7094672  )
        23           V   tau(  23) = (   0.7442079   0.8575091   0.7094672  )
        24           V   tau(  24) = (   1.2442079   0.8575091   0.7094672  )
        25           V   tau(  25) = (   0.2458628   0.6125065   0.4166712  )
        26           V   tau(  26) = (   0.7458628   0.6125065   0.4166712  )
        27           V   tau(  27) = (   0.2425531   1.1025117   0.4166712  )
        28           V   tau(  28) = (   0.7425531   1.1025117   0.4166712  )
        29           V   tau(  29) = (   0.4942079   0.8575091   0.9797404  )
        30           V   tau(  30) = (   0.9942079   0.8575091   0.9797404  )
        31           V   tau(  31) = (   0.4908982   1.3475143   0.9797404  )
        32           V   tau(  32) = (   0.9908982   1.3475143   0.9797404  )
        33           O   tau(  33) = (   0.5705507   0.2487756   0.2344620  )
        34           O   tau(  34) = (   1.0715696   0.2487756   0.2344620  )
        35           O   tau(  35) = (   0.5682599   0.7387808   0.2344620  )
        36           O   tau(  36) = (   1.0682599   0.7387808   0.2344620  )
        37           O   tau(  37) = (   0.8199148   0.4937782   0.7975312  )
        38           O   tau(  38) = (   1.3199148   0.4937782   0.7975312  )
        39           O   tau(  39) = (   0.8166050   0.9837834   0.7975312  )
        40           O   tau(  40) = (   1.3166050   0.9837834   0.7975312  )
        41           O   tau(  41) = (   0.4234657   0.4862321   0.2344620  )
        42           O   tau(  42) = (   0.9234657   0.4862321   0.2344620  )
        43           O   tau(  43) = (   0.4201560   0.9762373   0.2344620  )
        44           O   tau(  44) = (   0.9201560   0.9762373   0.2344620  )
        45           O   tau(  45) = (   0.6718109   0.7312347   0.7975312  )
        46           O   tau(  46) = (   1.1718109   0.7312347   0.7975312  )
        47           O   tau(  47) = (   0.6685011   1.2212399   0.7975312  )
        48           O   tau(  48) = (   1.1685011   1.2212399   0.7975312  )
        49           O   tau(  49) = (   0.1734657   0.4862321   0.3286072  )
        50           O   tau(  50) = (   0.6734657   0.4862321   0.3286072  )
        51           O   tau(  51) = (   0.1701560   0.9762373   0.3286072  )
        52           O   tau(  52) = (   0.6701560   0.9762373   0.3286072  )
        53           O   tau(  53) = (   0.4218109   0.7312347   0.8916764  )
        54           O   tau(  54) = (   0.9218109   0.7312347   0.8916764  )
        55           O   tau(  55) = (   0.4185011   1.2212399   0.8916764  )
        56           O   tau(  56) = (   0.9185011   1.2212399   0.8916764  )
        57           O   tau(  57) = (   0.3215696   0.2487756   0.3286072  )
        58           O   tau(  58) = (   0.8215696   0.2487756   0.3286072  )
        59           O   tau(  59) = (   0.3182599   0.7387808   0.3286072  )
        60           O   tau(  60) = (   0.8182599   0.7387808   0.3286072  )
        61           O   tau(  61) = (   0.5699148   0.4937782   0.8916764  )
        62           O   tau(  62) = (   1.0699148   0.4937782   0.8916764  )
        63           O   tau(  63) = (   0.5666050   0.9837834   0.8916764  )
        64           O   tau(  64) = (   1.0666050   0.9837834   0.8916764  )
        65           O   tau(  65) = (   0.6257292   0.6766972   0.5059740  )
        66           O   tau(  66) = (   1.1257292   0.6766972   0.5059740  )
        67           O   tau(  67) = (   0.6224195   1.1667024   0.5059740  )
        68           O   tau(  68) = (   1.1224195   1.1667024   0.5059740  )
        69           O   tau(  69) = (   0.8740744   0.9216998   1.0690432  )
        70           O   tau(  70) = (   1.3740744   0.9216998   1.0690432  )
        71           O   tau(  71) = (   0.8707646   1.4117049   1.0690432  )
        72           O   tau(  72) = (   1.3707646   1.4117049   1.0690432  )
        73           O   tau(  73) = (   0.3659964   0.5483158   0.5059740  )
        74           O   tau(  74) = (   0.8659964   0.5483158   0.5059740  )
        75           O   tau(  75) = (   0.3626866   1.0383210   0.5059740  )
        76           O   tau(  76) = (   0.8626866   1.0383210   0.5059740  )
        77           O   tau(  77) = (   0.6143415   0.7933184   1.0690432  )
        78           O   tau(  78) = (   1.1143415   0.7933184   1.0690432  )
        79           O   tau(  79) = (   0.6110318   1.2833236   1.0690432  )
        80           O   tau(  80) = (   1.1110318   1.2833236   1.0690432  )
        81           O   tau(  81) = (   0.1193061   0.0583106   0.0570952  )
        82           O   tau(  82) = (   0.6193061   0.0583106   0.0570952  )
        83           O   tau(  83) = (   0.1159964   0.5483158   0.0570952  )
        84           O   tau(  84) = (   0.6159964   0.5483158   0.0570952  )
        85           O   tau(  85) = (   0.3676513   0.3033132   0.6201644  )
        86           O   tau(  86) = (   0.8676513   0.3033132   0.6201644  )
        87           O   tau(  87) = (   0.3643415   0.7933184   0.6201644  )
        88           O   tau(  88) = (   0.8643415   0.7933184   0.6201644  )
        89           O   tau(  89) = (   0.3790390   0.1866920   0.0570952  )
        90           O   tau(  90) = (   0.8790390   0.1866920   0.0570952  )
        91           O   tau(  91) = (   0.3757292   0.6766972   0.0570952  )
        92           O   tau(  92) = (   0.8757292   0.6766972   0.0570952  )
        93           O   tau(  93) = (   0.6273841   0.4316946   0.6201644  )
        94           O   tau(  94) = (   1.1273841   0.4316946   0.6201644  )
        95           O   tau(  95) = (   0.6240744   0.9216998   0.6201644  )
        96           O   tau(  96) = (   1.1240744   0.9216998   0.6201644  )

     number of k points=     4
                       cart. coord. in units 2pi/alat
        k(    1) = (   0.2500000   0.2567880   0.0000000), wk =   0.5000000
        k(    2) = (   0.2500000   0.2567880  -0.4439951), wk =   0.5000000
        k(    3) = (   0.2500000  -0.2534107   0.2219976), wk =   0.5000000
        k(    4) = (  -0.2500000   0.2534107   0.2219976), wk =   0.5000000

     Dense  grid:   660405 G-vectors     FFT dimensions: ( 108, 108, 144)

     Estimated max dynamical RAM per process >       2.39 GB

     Estimated total dynamical RAM >       9.55 GB

     Initial potential from superposition of free atoms

     starting charge  703.96725, renormalised to  704.00000
     Starting wfc are  544 randomized atomic wfcs

     total cpu time spent up to now is      109.9 secs

     Self-consistent Calculation

     iteration #  1     ecut=    70.00 Ry     beta= 0.70
     Davidson diagonalization with overlap
     ethr =  1.00E-02,  avg # of iterations =  1.0

     total cpu time spent up to now is      269.9 secs

     total energy              =   -4949.31249162 Ry
     Harris-Foulkes estimate   =   -4981.29980593 Ry
     estimated scf accuracy    <      40.94055358 Ry

     iteration #  2     ecut=    70.00 Ry     beta= 0.70
     Davidson diagonalization with overlap
     ethr =  5.82E-03,  avg # of iterations =  4.0

     total cpu time spent up to now is      563.3 secs

     total energy              =   -4901.63684745 Ry
     Harris-Foulkes estimate   =   -5036.15236170 Ry
     estimated scf accuracy    <     570.68389684 Ry

     iteration #  3     ecut=    70.00 Ry     beta= 0.70
     Davidson diagonalization with overlap
     ethr =  5.82E-03,  avg # of iterations =  6.2

     total cpu time spent up to now is      868.4 secs

     total energy              =   -4970.00732461 Ry
     Harris-Foulkes estimate   =   -4977.38620080 Ry
     estimated scf accuracy    <      23.90344616 Ry

     iteration #  4     ecut=    70.00 Ry     beta= 0.70
     Davidson diagonalization with overlap
     ethr =  3.40E-03,  avg # of iterations =  2.0

     total cpu time spent up to now is     1066.2 secs

     total energy              =   -4972.11364416 Ry
     Harris-Foulkes estimate   =   -4972.74609725 Ry
     estimated scf accuracy    <       4.39007764 Ry

     iteration #  5     ecut=    70.00 Ry     beta= 0.70
     Davidson diagonalization with overlap
     ethr =  6.24E-04,  avg # of iterations =  2.0

     total cpu time spent up to now is     1231.3 secs

     total energy              =   -4971.79148425 Ry
     Harris-Foulkes estimate   =   -4972.31699463 Ry
     estimated scf accuracy    <       2.09024983 Ry

     iteration #  6     ecut=    70.00 Ry     beta= 0.70
     Davidson diagonalization with overlap
     ethr =  2.97E-04,  avg # of iterations =  3.0

     total cpu time spent up to now is     1436.7 secs

     total energy              =   -4972.08179702 Ry
     Harris-Foulkes estimate   =   -4972.11829677 Ry
     estimated scf accuracy    <       0.06314418 Ry

     iteration #  7     ecut=    70.00 Ry     beta= 0.70
     Davidson diagonalization with overlap
     ethr =  8.97E-06,  avg # of iterations =  4.0

     total cpu time spent up to now is     1698.7 secs

     total energy              =   -4972.08157904 Ry
     Harris-Foulkes estimate   =   -4972.12793561 Ry
     estimated scf accuracy    <       0.11380880 Ry

     iteration #  8     ecut=    70.00 Ry     beta= 0.70
     Davidson diagonalization with overlap
     ethr =  8.97E-06,  avg # of iterations =  3.0

     total cpu time spent up to now is     1944.8 secs

     total energy              =   -4972.10768694 Ry
     Harris-Foulkes estimate   =   -4972.11570813 Ry
     estimated scf accuracy    <       0.04586887 Ry

     iteration #  9     ecut=    70.00 Ry     beta= 0.70
     Davidson diagonalization with overlap
     ethr =  6.52E-06,  avg # of iterations =  3.0

     total cpu time spent up to now is     2147.6 secs

     total energy              =   -4972.10760221 Ry
     Harris-Foulkes estimate   =   -4972.11357466 Ry
     estimated scf accuracy    <       0.02739250 Ry

     iteration # 10     ecut=    70.00 Ry     beta= 0.70
     Davidson diagonalization with overlap
     ethr =  3.89E-06,  avg # of iterations =  2.2

     total cpu time spent up to now is     2330.4 secs

     total energy              =   -4972.10853973 Ry
     Harris-Foulkes estimate   =   -4972.10976739 Ry
     estimated scf accuracy    <       0.00409500 Ry

     iteration # 11     ecut=    70.00 Ry     beta= 0.70
     Davidson diagonalization with overlap
     ethr =  5.82E-07,  avg # of iterations =  3.0

     total cpu time spent up to now is     2548.1 secs

     total energy              =   -4972.10931461 Ry
     Harris-Foulkes estimate   =   -4972.10935077 Ry
     estimated scf accuracy    <       0.00017934 Ry

     iteration # 12     ecut=    70.00 Ry     beta= 0.70
     Davidson diagonalization with overlap
     ethr =  2.55E-08,  avg # of iterations =  3.0

     total cpu time spent up to now is     2784.4 secs

     total energy              =   -4972.10930878 Ry
     Harris-Foulkes estimate   =   -4972.10937141 Ry
     estimated scf accuracy    <       0.00024544 Ry

     iteration # 13     ecut=    70.00 Ry     beta= 0.70
     Davidson diagonalization with overlap
     ethr =  2.55E-08,  avg # of iterations =  3.0

     total cpu time spent up to now is     2997.0 secs

     total energy              =   -4972.10933274 Ry
     Harris-Foulkes estimate   =   -4972.10933808 Ry
     estimated scf accuracy    <       0.00001697 Ry

     iteration # 14     ecut=    70.00 Ry     beta= 0.70
     Davidson diagonalization with overlap
     ethr =  2.41E-09,  avg # of iterations =  3.0

     total cpu time spent up to now is     3229.6 secs

     total energy              =   -4972.10933459 Ry
     Harris-Foulkes estimate   =   -4972.10933698 Ry
     estimated scf accuracy    <       0.00000826 Ry

     iteration # 15     ecut=    70.00 Ry     beta= 0.70
     Davidson diagonalization with overlap
     ethr =  1.17E-09,  avg # of iterations =  3.0

     total cpu time spent up to now is     3457.8 secs

     total energy              =   -4972.10933546 Ry
     Harris-Foulkes estimate   =   -4972.10933640 Ry
     estimated scf accuracy    <       0.00000327 Ry

     iteration # 16     ecut=    70.00 Ry     beta= 0.70
     Davidson diagonalization with overlap
     ethr =  4.65E-10,  avg # of iterations =  3.0

     total cpu time spent up to now is     3666.9 secs

     total energy              =   -4972.10933590 Ry
     Harris-Foulkes estimate   =   -4972.10933598 Ry
     estimated scf accuracy    <       0.00000017 Ry

     iteration # 17     ecut=    70.00 Ry     beta= 0.70
     Davidson diagonalization with overlap
     ethr =  2.38E-11,  avg # of iterations =  4.0

     total cpu time spent up to now is     3941.9 secs

     total energy              =   -4972.10933593 Ry
     Harris-Foulkes estimate   =   -4972.10933601 Ry
     estimated scf accuracy    <       0.00000032 Ry

     iteration # 18     ecut=    70.00 Ry     beta= 0.70
     Davidson diagonalization with overlap
     ethr =  2.38E-11,  avg # of iterations =  3.0

     total cpu time spent up to now is     4176.8 secs

     total energy              =   -4972.10933597 Ry
     Harris-Foulkes estimate   =   -4972.10933598 Ry
     estimated scf accuracy    <       0.00000005 Ry

     iteration # 19     ecut=    70.00 Ry     beta= 0.70
     Davidson diagonalization with overlap
     ethr =  7.05E-12,  avg # of iterations =  3.0

     total cpu time spent up to now is     4398.1 secs

     total energy              =   -4972.10933597 Ry
     Harris-Foulkes estimate   =   -4972.10933598 Ry
     estimated scf accuracy    <          7.3E-09 Ry

     iteration # 20     ecut=    70.00 Ry     beta= 0.70
     Davidson diagonalization with overlap
     ethr =  1.03E-12,  avg # of iterations =  3.0

     total cpu time spent up to now is     4642.7 secs

     total energy              =   -4972.10933597 Ry
     Harris-Foulkes estimate   =   -4972.10933598 Ry
     estimated scf accuracy    <          9.0E-09 Ry

     iteration # 21     ecut=    70.00 Ry     beta= 0.70
     Davidson diagonalization with overlap
     ethr =  1.03E-12,  avg # of iterations =  3.0

     total cpu time spent up to now is     4867.8 secs

     total energy              =   -4972.10933597 Ry
     Harris-Foulkes estimate   =   -4972.10933598 Ry
     estimated scf accuracy    <          1.7E-09 Ry

     iteration # 22     ecut=    70.00 Ry     beta= 0.70
     Davidson diagonalization with overlap
     ethr =  2.37E-13,  avg # of iterations =  3.0

     total cpu time spent up to now is     5098.3 secs

     End of self-consistent calculation

          k = 0.2500 0.2568 0.0000 ( 82568 PWs)   bands (ev):

   -14.4899 -14.4868 -14.4866 -14.4851 -14.4840 -14.4829 -14.4826 -14.4823
   -14.4783 -14.4699 -14.4683 -14.4679 -14.4640 -14.4637 -14.4585 -14.4578
   -14.4522 -14.4515 -14.4486 -14.4369 -14.4343 -14.4314 -14.4307 -14.4255
   -14.4239 -14.4135 -14.4124 -14.4082 -14.4060 -14.4049 -14.4045 -14.4034
   -14.4025 -14.4002 -14.3985 -14.3981 -14.3974 -14.3969 -14.3956 -14.3951
   -14.3947 -14.3932 -14.3927 -14.3923 -14.3915 -14.3909 -14.3897 -14.3893
   -14.3879 -14.3863 -14.3842 -14.3839 -14.3817 -14.3811 -14.3803 -14.3799
   -14.3788 -14.3746 -14.3738 -14.3704 -14.3687 -14.3677 -14.3643 -14.3620
   -14.3607 -14.3598 -14.3593 -14.3582 -14.3566 -14.3539 -14.3523 -14.3513
   -14.3511 -14.3488 -14.3485 -14.3464 -14.3461 -14.3421 -14.3414 -14.3368
   -10.4959 -10.2964 -10.1663 -10.1659 -10.1205 -10.1201  -9.9301  -9.8058
    -9.6774  -9.6050  -9.6044  -9.5998  -9.5995  -9.5452  -9.4699  -9.3939
    -9.3598  -9.3209  -9.3204  -9.3143  -9.3021  -9.2799  -9.2794  -9.2525
    -9.2430  -9.1714  -9.1488  -9.1142  -9.1139  -9.0840  -9.0836  -9.0662
    -9.0634  -9.0424  -9.0400  -9.0396  -8.9740  -8.9736  -8.9532  -8.9451
    -8.9350  -8.9343  -8.9242  -8.8991  -8.8924  -8.8915  -8.8886  -8.8635
    -8.8251  -8.8245  -8.8240  -8.8219  -8.8208  -8.8049  -8.7838  -8.7833
    -8.7760  -8.7532  -8.7140  -8.7043  -8.7036  -8.6861  -8.6853  -8.6585
    -2.2088  -2.0742  -2.0738  -1.9657  -1.9024  -1.9016  -1.8937  -1.7951
    -1.5985  -1.5530  -1.5521  -1.5044  -1.4731  -1.3597  -1.3585  -1.3056
     2.4198   2.4643   2.4982   2.4989   2.5543   2.5547   2.6751   2.7352
     2.7360   2.7407   2.7503   2.7518   2.7644   2.7707   2.7755   2.8353
     2.8357   2.9406   2.9521   2.9758   2.9763   3.0039   3.1129   3.1806
     3.1809   3.2217   3.2514   3.2522   3.2808   3.3615   3.3860   3.3865
     3.4148   3.4221   3.4224   3.5346   3.5353   3.6269   3.6427   3.7109
     3.7117   3.7685   3.7766   3.7912   3.8971   3.8979   3.8987   3.9701
     3.9953   4.0188   4.0272   4.0423   4.0427   4.0436   4.0440   4.1463
     4.1864   4.2093   4.2096   4.2355   4.2393   4.2400   4.2451   4.2677
     4.2847   4.2854   4.3002   4.3514   4.3651   4.3698   4.3704   4.3759
     4.3826   4.3830   4.4049   4.4085   4.4410   4.4868   4.4932   4.4937
     4.5360   4.5379   4.6132   4.6349   4.6354   4.6445   4.6451   4.6729
     4.6732   4.6803   4.6961   4.7003   4.7135   4.7215   4.7671   4.7699
     4.7701   4.8414   4.8612   4.8616   4.9192   4.9341   5.0015   5.0078
     5.0082   5.0558   5.0563   5.0928   5.0936   5.1129   5.1232   5.1236
     5.1457   5.1460   5.2149   5.2737   5.2865   5.2876   5.2882   5.3620
     5.3688   5.3694   5.3939   5.3980   5.4239   5.5204   5.5206   5.5458
     5.6499   5.7457   5.7465   5.7518   5.8379   5.8540   5.8542   5.8698
     5.8907   5.9897   5.9928   5.9935   6.0039   6.0648   6.0651   6.1334
     6.1357   6.1559   6.2486   6.2714   6.2720   6.2742   6.2749   6.2754
     6.2853   6.2858   6.2959   6.4121   6.4129   6.4133   6.4195   6.4236
     6.4643   6.4647   6.4740   6.4745   6.4927   6.5827   6.5901   6.5906
     6.6963   6.6983   6.7261   6.7917   6.7919   6.7950   6.8123   6.8672
     6.8742   6.8785   6.8796   6.9328   6.9418   6.9471   6.9474   6.9903
     6.9908   7.0639   7.1486   7.2887   7.2893   7.3689   7.3693   7.4771

          k = 0.2500 0.2568-0.4440 ( 82488 PWs)   bands (ev):

   -14.4900 -14.4870 -14.4863 -14.4847 -14.4843 -14.4841 -14.4837 -14.4788
   -14.4759 -14.4736 -14.4732 -14.4613 -14.4588 -14.4570 -14.4567 -14.4564
   -14.4535 -14.4531 -14.4523 -14.4499 -14.4358 -14.4323 -14.4317 -14.4235
   -14.4211 -14.4167 -14.4159 -14.4145 -14.4082 -14.4074 -14.4042 -14.4034
   -14.4011 -14.4004 -14.3988 -14.3979 -14.3972 -14.3968 -14.3963 -14.3961
   -14.3947 -14.3927 -14.3917 -14.3916 -14.3907 -14.3894 -14.3888 -14.3859
   -14.3852 -14.3846 -14.3838 -14.3829 -14.3802 -14.3765 -14.3754 -14.3733
   -14.3726 -14.3717 -14.3709 -14.3705 -14.3703 -14.3695 -14.3691 -14.3682
   -14.3631 -14.3618 -14.3614 -14.3573 -14.3548 -14.3538 -14.3536 -14.3520
   -14.3513 -14.3497 -14.3490 -14.3487 -14.3479 -14.3421 -14.3413 -14.3362
   -10.4124 -10.4120 -10.2242 -10.1947 -10.0987 -10.0192  -9.8744  -9.8739
    -9.6769  -9.6004  -9.5595  -9.5150  -9.5089  -9.5084  -9.4909  -9.4903
    -9.4413  -9.4399  -9.3931  -9.3927  -9.2304  -9.2250  -9.2244  -9.1948
    -9.1944  -9.1697  -9.1691  -9.1518  -9.1415  -9.1385  -9.1237  -9.0861
    -9.0666  -9.0661  -9.0500  -8.9817  -8.9745  -8.9643  -8.9103  -8.9076
    -8.8998  -8.8993  -8.8946  -8.8891  -8.8886  -8.8809  -8.8756  -8.8750
    -8.8525  -8.8401  -8.8307  -8.8303  -8.8158  -8.8154  -8.8004  -8.7858
    -8.7853  -8.7643  -8.7190  -8.6973  -8.6921  -8.6850  -8.6844  -8.6816
    -2.1226  -2.0994  -2.0989  -2.0228  -1.9821  -1.8518  -1.8510  -1.7735
    -1.6579  -1.5449  -1.5438  -1.4961  -1.3906  -1.3780  -1.3770  -1.3308
     2.4965   2.4996   2.5658   2.5689   2.5694   2.5716   2.6230   2.6613
     2.6618   2.7256   2.7259   2.7514   2.7518   2.7768   2.8685   2.8698
     2.8699   2.8739   2.8782   2.8787   2.9145   3.0340   3.0927   3.1339
     3.1402   3.1404   3.2566   3.2598   3.2721   3.2854   3.2980   3.2983
     3.3719   3.4349   3.4609   3.4616   3.6028   3.6033   3.6711   3.7707
     3.7984   3.8281   3.9033   3.9035   3.9862   3.9866   4.0147   4.0357
     4.0467   4.0665   4.0837   4.0942   4.1177   4.1184   4.1495   4.1701
     4.1709   4.2035   4.2217   4.2227   4.2231   4.2370   4.2642   4.2847
     4.2853   4.2968   4.2982   4.2988   4.3191   4.3390   4.3396   4.3418
     4.4068   4.4305   4.4315   4.4339   4.4734   4.4738   4.4743   4.4784
     4.4811   4.4817   4.5265   4.5323   4.5517   4.5522   4.6019   4.6250
     4.6253   4.6410   4.6858   4.6866   4.7297   4.7921   4.8223   4.8229
     4.8317   4.8326   4.8644   4.8783   4.8786   4.8859   4.8864   4.8975
     4.8982   4.9906   5.0366   5.0372   5.0928   5.1062   5.1165   5.1530
     5.1645   5.1653   5.2045   5.2261   5.2457   5.2463   5.2550   5.2750
     5.3077   5.3365   5.3371   5.4455   5.4709   5.5705   5.5710   5.6566
     5.7133   5.7956   5.7996   5.8006   5.8119   5.8867   5.8870   5.9155
     5.9796   6.0127   6.0309   6.0313   6.0557   6.0661   6.0676   6.0683
     6.1156   6.1611   6.1700   6.1702   6.1878   6.2021   6.2025   6.2750
     6.3436   6.3552   6.3561   6.4020   6.4024   6.4096   6.4916   6.4917
     6.5015   6.5130   6.5235   6.5268   6.5770   6.5880   6.6171   6.6368
     6.6373   6.6577   6.6858   6.6865   6.7879   6.7885   6.8017   6.8022
     6.8252   6.8803   6.8808   6.9347   6.9352   6.9549   6.9557   6.9717
     7.0237   7.0309   7.0886   7.1802   7.3434   7.3442   7.4397   7.5542

          k = 0.2500-0.2534 0.2220 ( 82555 PWs)   bands (ev):

   -14.4901 -14.4873 -14.4859 -14.4857 -14.4849 -14.4845 -14.4832 -14.4782
   -14.4757 -14.4733 -14.4713 -14.4640 -14.4616 -14.4601 -14.4595 -14.4574
   -14.4546 -14.4512 -14.4481 -14.4430 -14.4362 -14.4314 -14.4291 -14.4261
   -14.4228 -14.4157 -14.4126 -14.4100 -14.4080 -14.4076 -14.4062 -14.4040
   -14.4018 -14.3991 -14.3982 -14.3975 -14.3971 -14.3966 -14.3958 -14.3951
   -14.3941 -14.3926 -14.3919 -14.3910 -14.3906 -14.3900 -14.3897 -14.3892
   -14.3874 -14.3856 -14.3842 -14.3841 -14.3831 -14.3798 -14.3769 -14.3748
   -14.3744 -14.3733 -14.3719 -14.3716 -14.3700 -14.3685 -14.3661 -14.3654
   -14.3622 -14.3613 -14.3578 -14.3573 -14.3562 -14.3553 -14.3529 -14.3513
   -14.3505 -14.3502 -14.3488 -14.3475 -14.3472 -14.3415 -14.3406 -14.3371
   -10.4780 -10.3428 -10.2011 -10.1569 -10.1064 -10.0293  -9.9444  -9.8712
    -9.6908  -9.6128  -9.6077  -9.5889  -9.5735  -9.4718  -9.4142  -9.4082
    -9.4065  -9.3902  -9.3829  -9.3605  -9.2471  -9.2333  -9.2223  -9.2013
    -9.1966  -9.1783  -9.1658  -9.1334  -9.1216  -9.1190  -9.1111  -9.1102
    -9.0627  -9.0576  -9.0572  -9.0235  -9.0216  -9.0099  -8.9362  -8.9357
    -8.9315  -8.9148  -8.9135  -8.8894  -8.8861  -8.8858  -8.8493  -8.8481
    -8.8420  -8.8397  -8.8075  -8.7956  -8.7950  -8.7836  -8.7832  -8.7716
    -8.7682  -8.7630  -8.7587  -8.7321  -8.7098  -8.7044  -8.6759  -8.6490
    -2.1763  -2.1134  -2.0312  -2.0122  -1.9600  -1.8807  -1.8254  -1.8187
    -1.6240  -1.5609  -1.5199  -1.5113  -1.4294  -1.3973  -1.3356  -1.3239
     2.4308   2.4817   2.5236   2.5560   2.5782   2.5801   2.5821   2.6381
     2.6910   2.7005   2.7257   2.7410   2.7828   2.7904   2.8049   2.8414
     2.8417   2.8599   3.0160   3.0333   3.0563   3.0832   3.1172   3.1267
     3.1425   3.1918   3.1944   3.2116   3.2336   3.2544   3.3120   3.3725
     3.5132   3.5261   3.5406   3.5498   3.5761   3.6013   3.6515   3.6566
     3.6879   3.6971   3.8606   3.8733   3.9118   3.9336   3.9454   3.9531
     3.9848   3.9868   4.0117   4.0479   4.0986   4.1151   4.1283   4.1408
     4.1483   4.1957   4.2021   4.2055   4.2121   4.2316   4.2335   4.2418
     4.2497   4.2527   4.2939   4.3075   4.3413   4.3542   4.3569   4.3820
     4.4243   4.4262   4.4329   4.4446   4.4530   4.4686   4.4970   4.5294
     4.5390   4.5401   4.5412   4.5648   4.5729   4.6681   4.6687   4.6826
     4.6888   4.7127   4.7348   4.7384   4.7503   4.7531   4.7568   4.7636
     4.7915   4.7977   4.8717   4.8746   4.8774   4.9043   4.9327   4.9657
     4.9770   4.9985   5.0319   5.0502   5.0932   5.0955   5.1239   5.1779
     5.1850   5.2027   5.2302   5.2569   5.2664   5.2692   5.2963   5.3006
     5.3749   5.3761   5.4498   5.4660   5.5044   5.5403   5.5443   5.6072
     5.6762   5.6879   5.6932   5.7132   5.7219   5.7492   5.8081   5.8546
     5.8892   5.9405   5.9613   5.9763   5.9887   6.0379   6.0482   6.1434
     6.1518   6.1999   6.2277   6.2532   6.2731   6.2748   6.2800   6.3111
     6.3352   6.3537   6.3582   6.3783   6.4236   6.4332   6.4341   6.4788
     6.4792   6.5010   6.5549   6.5680   6.6151   6.6215   6.6623   6.6651
     6.6910   6.6916   6.6942   6.7218   6.7262   6.7319   6.7476   6.7901
     6.8307   6.8699   6.8877   6.9221   6.9377   6.9419   6.9567   6.9795
     6.9818   7.0788   7.1198   7.2379   7.2878   7.3054   7.4630   7.4682

          k =-0.2500 0.2534 0.2220 ( 82555 PWs)   bands (ev):

   -14.4901 -14.4872 -14.4859 -14.4855 -14.4853 -14.4843 -14.4831 -14.4782
   -14.4757 -14.4735 -14.4711 -14.4640 -14.4618 -14.4598 -14.4596 -14.4572
   -14.4548 -14.4511 -14.4481 -14.4429 -14.4361 -14.4316 -14.4290 -14.4261
   -14.4228 -14.4156 -14.4127 -14.4099 -14.4080 -14.4078 -14.4061 -14.4041
   -14.4016 -14.3990 -14.3983 -14.3973 -14.3971 -14.3966 -14.3958 -14.3950
   -14.3942 -14.3924 -14.3920 -14.3911 -14.3905 -14.3901 -14.3897 -14.3891
   -14.3875 -14.3853 -14.3844 -14.3839 -14.3833 -14.3798 -14.3767 -14.3751
   -14.3744 -14.3733 -14.3717 -14.3714 -14.3702 -14.3683 -14.3663 -14.3653
   -14.3623 -14.3613 -14.3579 -14.3571 -14.3564 -14.3551 -14.3530 -14.3514
   -14.3505 -14.3499 -14.3490 -14.3476 -14.3472 -14.3416 -14.3405 -14.3371
   -10.4780 -10.3428 -10.2011 -10.1569 -10.1064 -10.0293  -9.9444  -9.8712
    -9.6907  -9.6128  -9.6077  -9.5888  -9.5735  -9.4718  -9.4142  -9.4082
    -9.4065  -9.3901  -9.3830  -9.3605  -9.2472  -9.2334  -9.2225  -9.2014
    -9.1966  -9.1782  -9.1654  -9.1335  -9.1215  -9.1189  -9.1112  -9.1106
    -9.0626  -9.0575  -9.0568  -9.0235  -9.0216  -9.0101  -8.9365  -8.9357
    -8.9314  -8.9149  -8.9136  -8.8893  -8.8861  -8.8858  -8.8492  -8.8482
    -8.8421  -8.8394  -8.8076  -8.7957  -8.7948  -8.7836  -8.7832  -8.7717
    -8.7682  -8.7631  -8.7585  -8.7322  -8.7098  -8.7044  -8.6759  -8.6490
    -2.1763  -2.1133  -2.0313  -2.0121  -1.9602  -1.8806  -1.8250  -1.8188
    -1.6244  -1.5608  -1.5199  -1.5112  -1.4295  -1.3973  -1.3356  -1.3238
     2.4309   2.4817   2.5234   2.5562   2.5782   2.5801   2.5822   2.6382
     2.6911   2.7004   2.7256   2.7408   2.7828   2.7901   2.8050   2.8413
     2.8418   2.8597   3.0159   3.0335   3.0565   3.0831   3.1171   3.1268
     3.1426   3.1916   3.1946   3.2121   3.2338   3.2539   3.3122   3.3724
     3.5130   3.5259   3.5412   3.5496   3.5756   3.6013   3.6515   3.6567
     3.6880   3.6972   3.8614   3.8738   3.9121   3.9338   3.9447   3.9529
     3.9844   3.9865   4.0114   4.0478   4.0983   4.1145   4.1280   4.1408
     4.1489   4.1955   4.2024   4.2054   4.2115   4.2313   4.2336   4.2412
     4.2493   4.2526   4.2943   4.3075   4.3415   4.3546   4.3571   4.3830
     4.4248   4.4264   4.4330   4.4450   4.4529   4.4681   4.4970   4.5296
     4.5394   4.5403   4.5410   4.5648   4.5726   4.6681   4.6690   4.6828
     4.6885   4.7127   4.7345   4.7381   4.7501   4.7535   4.7565   4.7634
     4.7913   4.7980   4.8716   4.8751   4.8777   4.9045   4.9324   4.9652
     4.9770   4.9990   5.0322   5.0496   5.0934   5.0957   5.1241   5.1773
     5.1852   5.2023   5.2299   5.2568   5.2667   5.2690   5.2965   5.3010
     5.3747   5.3763   5.4496   5.4662   5.5041   5.5408   5.5447   5.6074
     5.6758   5.6879   5.6926   5.7134   5.7219   5.7491   5.8086   5.8541
     5.8894   5.9405   5.9613   5.9757   5.9886   6.0379   6.0482   6.1433
     6.1514   6.2000   6.2274   6.2533   6.2731   6.2744   6.2795   6.3116
     6.3350   6.3535   6.3588   6.3782   6.4237   6.4329   6.4343   6.4790
     6.4794   6.5014   6.5550   6.5679   6.6153   6.6215   6.6624   6.6653
     6.6909   6.6918   6.6936   6.7219   6.7266   6.7320   6.7478   6.7901
     6.8309   6.8698   6.8873   6.9218   6.9377   6.9422   6.9565   6.9792
     6.9816   7.0795   7.1200   7.2380   7.2879   7.3053   7.4631   7.4679

     highest occupied level (ev):     7.5542

!    total energy              =   -4972.10933597 Ry
     Harris-Foulkes estimate   =   -4972.10933598 Ry
     estimated scf accuracy    <          5.3E-10 Ry

     The total energy is the sum of the following terms:

     one-electron contribution =   -1193.09904329 Ry
     hartree contribution      =    1074.12879477 Ry
     xc contribution           =   -1297.70175175 Ry
     ewald contribution        =   -3555.43733570 Ry

     convergence has been achieved in  22 iterations

     Forces acting on atoms (cartesian axes, Ry/au):

     atom    1 type  1   force =     0.00027801   -0.00024737   -0.01386025
     atom    2 type  1   force =    -0.00015125    0.00000525   -0.01377807
     atom    3 type  1   force =     0.00018629    0.00015728   -0.01381101
     atom    4 type  1   force =    -0.00013178    0.00012863   -0.01401277
     atom    5 type  1   force =    -0.00000729   -0.00001693   -0.01386509
     atom    6 type  1   force =     0.00001072    0.00000021   -0.01382084
     atom    7 type  1   force =    -0.00005297    0.00000202   -0.01387453
     atom    8 type  1   force =     0.00003028    0.00001869   -0.01384313
     atom    9 type  1   force =    -0.00049873    0.00017938    0.01422009
     atom   10 type  1   force =     0.00022860    0.00000913    0.01399748
     atom   11 type  1   force =    -0.00016823    0.00011388    0.01372979
     atom   12 type  1   force =     0.00007764    0.00000841    0.01386640
     atom   13 type  1   force =     0.00012385    0.00000049    0.01401696
     atom   14 type  1   force =    -0.00010841   -0.00008257    0.01397088
     atom   15 type  1   force =     0.00003846    0.00002136    0.01385824
     atom   16 type  1   force =    -0.00004706    0.00006154    0.01380265
     atom   17 type  2   force =    -0.00221904   -0.00173337    0.00325434
     atom   18 type  2   force =     0.00015561   -0.00006665    0.00454673
     atom   19 type  2   force =    -0.00016958    0.00005335    0.00463687
     atom   20 type  2   force =     0.00014383    0.00024515    0.00439054
     atom   21 type  2   force =    -0.00003545    0.00004150    0.00457281
     atom   22 type  2   force =     0.00002140   -0.00000486    0.00453414
     atom   23 type  2   force =    -0.00001462   -0.00002008    0.00456025
     atom   24 type  2   force =    -0.00001188   -0.00001327    0.00451654
     atom   25 type  2   force =     0.00005171    0.00002390   -0.00452167
     atom   26 type  2   force =     0.00002271    0.00013350   -0.00444641
     atom   27 type  2   force =     0.00019786    0.00018676   -0.00474517
     atom   28 type  2   force =     0.00009249   -0.00037253   -0.00418028
     atom   29 type  2   force =     0.00019179   -0.00011513   -0.00462496
     atom   30 type  2   force =    -0.00008377   -0.00002090   -0.00451510
     atom   31 type  2   force =     0.00001934    0.00002760   -0.00454427
     atom   32 type  2   force =    -0.00000771    0.00007050   -0.00446258
     atom   33 type  3   force =     0.00397782    0.00087625    0.00111147
     atom   34 type  3   force =    -0.00025148   -0.00129523    0.00017391
     atom   35 type  3   force =    -0.00017039   -0.00134068    0.00016266
     atom   36 type  3   force =    -0.00024788   -0.00137554    0.00014609
     atom   37 type  3   force =    -0.00016982   -0.00129606    0.00014251
     atom   38 type  3   force =    -0.00016685   -0.00129069    0.00014964
     atom   39 type  3   force =    -0.00017816   -0.00127880    0.00016913
     atom   40 type  3   force =    -0.00015460   -0.00126538    0.00019247
     atom   41 type  3   force =    -0.00033752    0.00189506    0.00020112
     atom   42 type  3   force =    -0.00076890    0.00132966    0.00005242
     atom   43 type  3   force =    -0.00057067    0.00123473    0.00047691
     atom   44 type  3   force =    -0.00034820    0.00172597    0.00022116
     atom   45 type  3   force =    -0.00034094    0.00172865    0.00018514
     atom   46 type  3   force =    -0.00034053    0.00171118    0.00019775
     atom   47 type  3   force =    -0.00034091    0.00168960    0.00021011
     atom   48 type  3   force =    -0.00034104    0.00168025    0.00022527
     atom   49 type  3   force =     0.00007088    0.00127185   -0.00013894
     atom   50 type  3   force =     0.00013038    0.00102708   -0.00035652
     atom   51 type  3   force =     0.00008713    0.00121771   -0.00019106
     atom   52 type  3   force =     0.00021345    0.00153089   -0.00016867
     atom   53 type  3   force =     0.00022045    0.00135396   -0.00014018
     atom   54 type  3   force =     0.00017680    0.00129482   -0.00018576
     atom   55 type  3   force =     0.00015638    0.00125605   -0.00017476
     atom   56 type  3   force =     0.00014590    0.00124520   -0.00018913
     atom   57 type  3   force =    -0.00028270   -0.00174390    0.00017909
     atom   58 type  3   force =    -0.00027233   -0.00169618   -0.00056286
     atom   59 type  3   force =     0.00032107   -0.00173232   -0.00018880
     atom   60 type  3   force =     0.00032060   -0.00175515   -0.00016325
     atom   61 type  3   force =     0.00030389   -0.00172070   -0.00021861
     atom   62 type  3   force =     0.00034288   -0.00168331   -0.00024340
     atom   63 type  3   force =     0.00030374   -0.00173819   -0.00017880
     atom   64 type  3   force =     0.00034295   -0.00168869   -0.00021444
     atom   65 type  3   force =    -0.00867598    0.00532607    0.00543237
     atom   66 type  3   force =    -0.00876793    0.00539381    0.00546162
     atom   67 type  3   force =    -0.00867634    0.00538581    0.00530078
     atom   68 type  3   force =    -0.00888304    0.00544152    0.00552275
     atom   69 type  3   force =    -0.00872749    0.00540756    0.00542152
     atom   70 type  3   force =    -0.00901810    0.00538092    0.00580880
     atom   71 type  3   force =    -0.00874068    0.00533133    0.00540870
     atom   72 type  3   force =    -0.00874338    0.00537503    0.00546915
     atom   73 type  3   force =     0.00836747   -0.00506261    0.00546950
     atom   74 type  3   force =     0.00839950   -0.00509064    0.00544061
     atom   75 type  3   force =     0.00846986   -0.00512332    0.00554566
     atom   76 type  3   force =     0.00834178   -0.00503796    0.00541457
     atom   77 type  3   force =     0.00831757   -0.00505233    0.00541093
     atom   78 type  3   force =     0.00849288   -0.00507132    0.00553753
     atom   79 type  3   force =     0.00839458   -0.00510329    0.00545615
     atom   80 type  3   force =     0.00843781   -0.00514823    0.00546647
     atom   81 type  3   force =     0.00866514   -0.00534959   -0.00543290
     atom   82 type  3   force =     0.00964342   -0.00540745   -0.00560787
     atom   83 type  3   force =     0.00863957   -0.00531745   -0.00543509
     atom   84 type  3   force =     0.00897049   -0.00552788   -0.00548039
     atom   85 type  3   force =     0.00873776   -0.00538045   -0.00543460
     atom   86 type  3   force =     0.00876794   -0.00539317   -0.00550717
     atom   87 type  3   force =     0.00873991   -0.00538592   -0.00544682
     atom   88 type  3   force =     0.00874697   -0.00537691   -0.00547388
     atom   89 type  3   force =    -0.00903185    0.00507745   -0.00595389
     atom   90 type  3   force =    -0.00849910    0.00524291   -0.00546176
     atom   91 type  3   force =    -0.00837917    0.00506761   -0.00545951
     atom   92 type  3   force =    -0.00835020    0.00504245   -0.00545191
     atom   93 type  3   force =    -0.00835761    0.00509414   -0.00542215
     atom   94 type  3   force =    -0.00844656    0.00510047   -0.00550719
     atom   95 type  3   force =    -0.00840313    0.00510845   -0.00546949
     atom   96 type  3   force =    -0.00842633    0.00509001   -0.00547277

     Total force =     0.087973     Total SCF correction =     0.000077


     Computing stress (Cartesian axis) and pressure

          total   stress  (Ry/bohr**3)                   (kbar)     P=   40.64
   0.00029141   0.00000155   0.00000001         42.87      0.23      0.00
   0.00000155   0.00026724   0.00000049          0.23     39.31      0.07
   0.00000001   0.00000049   0.00027019          0.00      0.07     39.75


     init_run     :    107.53s CPU    109.61s WALL (       1 calls)
     electrons    :   4900.72s CPU   4988.37s WALL (       1 calls)
     forces       :     34.51s CPU     34.99s WALL (       1 calls)
     stress       :    300.78s CPU    301.69s WALL (       1 calls)

     Called by init_run:
     wfcinit      :     94.15s CPU     95.90s WALL (       1 calls)
     potinit      :      4.44s CPU      4.47s WALL (       1 calls)

     Called by electrons:
     c_bands      :   4230.51s CPU   4299.09s WALL (      22 calls)
     sum_band     :    634.92s CPU    648.39s WALL (      22 calls)
     v_of_rho     :      8.84s CPU      9.10s WALL (      23 calls)
     newd         :     25.32s CPU     30.92s WALL (      23 calls)
     mix_rho      :      2.34s CPU      2.38s WALL (      22 calls)

     Called by c_bands:
     init_us_2    :     24.75s CPU     24.82s WALL (     188 calls)
     cegterg      :   4158.43s CPU   4226.98s WALL (      88 calls)

     Called by sum_band:
     sum_band:bec :      0.22s CPU      0.20s WALL (      88 calls)
     addusdens    :     36.56s CPU     42.33s WALL (      22 calls)

     Called by *egterg:
     h_psi        :   3066.85s CPU   3108.39s WALL (     362 calls)
     s_psi        :    312.22s CPU    312.21s WALL (     362 calls)
     g_psi        :      5.44s CPU      5.41s WALL (     270 calls)
     cdiaghg      :    131.51s CPU    131.59s WALL (     358 calls)

     Called by h_psi:
     h_psi:pot    :   3049.68s CPU   3091.03s WALL (     362 calls)
     h_psi:calbec :    294.56s CPU    294.78s WALL (     362 calls)
     vloc_psi     :   2441.36s CPU   2482.47s WALL (     362 calls)
     add_vuspsi   :    313.74s CPU    313.78s WALL (     362 calls)

     General routines
     calbec       :    417.58s CPU    417.90s WALL (     470 calls)
     fft          :      7.56s CPU      7.98s WALL (     323 calls)
     fftw         :   2481.06s CPU   2529.25s WALL (  212100 calls)

     Parallel routines
     fft_scatt_xy :    429.30s CPU    429.40s WALL (  212423 calls)
     fft_scatt_yz :    460.68s CPU    488.15s WALL (  212423 calls)

     PWSCF        :     1h29m CPU        1h30m WALL


   This run was terminated on:   3:27:32  28Oct2021            

=------------------------------------------------------------------------------=
   JOB DONE.
=------------------------------------------------------------------------------=
Note: The following floating-point exceptions are signalling: IEEE_DIVIDE_BY_ZERO
Note: The following floating-point exceptions are signalling:Note: The following floating-point exceptions are signalling: IEEE_DIVIDE_BY_ZERO
 IEEE_DIVIDE_BY_ZERO IEEE_UNDERFLOW_FLAG IEEE_DENORMAL
Note: The following floating-point exceptions are signalling: IEEE_DIVIDE_BY_ZERO
