
     Program PWSCF v.6.2 (svn rev. 13949:13950) starts on 27Oct2021 at 16:45:33 

     This program is part of the open-source Quantum ESPRESSO suite
     for quantum simulation of materials; please cite
         "P. Giannozzi et al., J. Phys.:Condens. Matter 21 395502 (2009);
         "P. Giannozzi et al., J. Phys.:Condens. Matter 29 465901 (2017);
          URL http://www.quantum-espresso.org", 
     in publications or presentations arising from this work. More details at
     http://www.quantum-espresso.org/quote

     Parallel version (MPI), running on     4 processors

     MPI processes distributed on     1 nodes
     R & G space division:  proc/nbgrp/npool/nimage =       4
     Reading input from headeradd_supercell-002.in

     Current dimensions of program PWSCF are:
     Max number of different atomic species (ntypx) = 10
     Max number of k-points (npk) =  40000
     Max angular momentum in pseudopotentials (lmaxx) =  3
     Message from routine iosys:
     minimal I/O required, wf_collect reset to FALSE
               file Bi.pbe-dn-rrkjus_psl.1.0.0.UPF: wavefunction(s)  5D renormalized
               file O.pbe-rrkjus.UPF: wavefunction(s)  2S renormalized

     Subspace diagonalization in iterative solution of the eigenvalue problem:
     a serial algorithm will be used


     Parallelization info
     --------------------
     sticks:   dense  smooth     PW     G-vecs:    dense   smooth      PW
     Min        2104    2104    550               165101   165101   22036
     Max        2105    2105    551               165102   165102   22038
     Sum        8417    8417   2201               660405   660405   88147



     bravais-lattice index     =            0
     lattice parameter (alat)  =      19.6286  a.u.
     unit-cell volume          =    8346.2129 (a.u.)^3
     number of atoms/cell      =           96
     number of atomic types    =            3
     number of electrons       =       704.00
     number of Kohn-Sham states=          352
     kinetic-energy cutoff     =      70.0000  Ry
     charge density cutoff     =     280.0000  Ry
     convergence threshold     =      1.0E-09
     mixing beta               =       0.7000
     number of iterations used =            8  plain     mixing
     Exchange-correlation      =  SLA  PW   PBE  PBE ( 1  4  3  4 0 0)

     celldm(1)=  19.628585  celldm(2)=   0.000000  celldm(3)=   0.000000
     celldm(4)=   0.000000  celldm(5)=   0.000000  celldm(6)=   0.000000

     crystal axes: (cart. coord. in units of alat)
               a(1) = (   1.000000   0.000000   0.000000 )  
               a(2) = (  -0.006620   0.980010   0.000000 )  
               a(3) = (   0.496690   0.490005   1.126138 )  

     reciprocal axes: (cart. coord. in units 2 pi/alat)
               b(1) = (  1.000000  0.006755 -0.443995 )  
               b(2) = (  0.000000  1.020397 -0.443995 )  
               b(3) = (  0.000000 -0.000000  0.887990 )  


     PseudoPot. # 1 for Bi read from file:
     /home/uezono/pseudo/Bi.pbe-dn-rrkjus_psl.1.0.0.UPF
     MD5 check sum: f9abe7488ae443f53c935a63d0032572
     Pseudo is Ultrasoft + core correction, Zval = 15.0
     Generated using "atomic" code by A. Dal Corso  v.6.2.2
     Using radial grid of 1283 points,  6 beta functions with: 
                l(1) =   0
                l(2) =   0
                l(3) =   1
                l(4) =   1
                l(5) =   2
                l(6) =   2
     Q(r) pseudized with 0 coefficients 


     PseudoPot. # 2 for V  read from file:
     /home/uezono/pseudo/V.pbe-n-van.UPF
     MD5 check sum: ff5646be6093ca757d9525862f4bfff1
     Pseudo is Ultrasoft + core correction, Zval =  5.0
     Generated by new atomic code, or converted to UPF format
     Using radial grid of  853 points,  6 beta functions with: 
                l(1) =   0
                l(2) =   0
                l(3) =   1
                l(4) =   1
                l(5) =   2
                l(6) =   2
     Q(r) pseudized with  8 coefficients,  rinner =    1.000   1.000   1.000
                                                       1.000   1.000

     PseudoPot. # 3 for O  read from file:
     /home/uezono/pseudo/O.pbe-rrkjus.UPF
     MD5 check sum: fadcf19ee70a498d3030e2e79cf929a4
     Pseudo is Ultrasoft, Zval =  6.0
     Generated by new atomic code, or converted to UPF format
     Using radial grid of 1269 points,  4 beta functions with: 
                l(1) =   0
                l(2) =   0
                l(3) =   1
                l(4) =   1
     Q(r) pseudized with 0 coefficients 


     atomic species   valence    mass     pseudopotential
        Bi            15.00   208.98040     Bi( 1.00)
        V              5.00    50.94150     V ( 1.00)
        O              6.00    15.99940     O ( 1.00)

     No symmetry found



   Cartesian axes

     site n.     atom                  positions (alat units)
         1           Bi  tau(   1) = (   0.2471357   0.3671270   0.1494733  )
         2           Bi  tau(   2) = (   0.7475177   0.3675039   0.1503395  )
         3           Bi  tau(   3) = (   0.2442079   0.8575091   0.1503395  )
         4           Bi  tau(   4) = (   0.7442079   0.8575091   0.1503395  )
         5           Bi  tau(   5) = (   0.4958628   0.6125065   0.7134087  )
         6           Bi  tau(   6) = (   0.9958628   0.6125065   0.7134087  )
         7           Bi  tau(   7) = (   0.4925531   1.1025117   0.7134087  )
         8           Bi  tau(   8) = (   0.9925531   1.1025117   0.7134087  )
         9           Bi  tau(   9) = (   0.4975177   0.3675039   0.4127297  )
        10           Bi  tau(  10) = (   0.9975177   0.3675039   0.4127297  )
        11           Bi  tau(  11) = (   0.4942079   0.8575091   0.4127297  )
        12           Bi  tau(  12) = (   0.9942079   0.8575091   0.4127297  )
        13           Bi  tau(  13) = (   0.7458628   0.6125065   0.9757990  )
        14           Bi  tau(  14) = (   1.2458628   0.6125065   0.9757990  )
        15           Bi  tau(  15) = (   0.7425531   1.1025117   0.9757990  )
        16           Bi  tau(  16) = (   1.2425531   1.1025117   0.9757990  )
        17           V   tau(  17) = (   0.4991726   0.1225013   0.1463980  )
        18           V   tau(  18) = (   0.9991726   0.1225013   0.1463980  )
        19           V   tau(  19) = (   0.4958628   0.6125065   0.1463980  )
        20           V   tau(  20) = (   0.9958628   0.6125065   0.1463980  )
        21           V   tau(  21) = (   0.7475177   0.3675039   0.7094672  )
        22           V   tau(  22) = (   1.2475177   0.3675039   0.7094672  )
        23           V   tau(  23) = (   0.7442079   0.8575091   0.7094672  )
        24           V   tau(  24) = (   1.2442079   0.8575091   0.7094672  )
        25           V   tau(  25) = (   0.2458628   0.6125065   0.4166712  )
        26           V   tau(  26) = (   0.7458628   0.6125065   0.4166712  )
        27           V   tau(  27) = (   0.2425531   1.1025117   0.4166712  )
        28           V   tau(  28) = (   0.7425531   1.1025117   0.4166712  )
        29           V   tau(  29) = (   0.4942079   0.8575091   0.9797404  )
        30           V   tau(  30) = (   0.9942079   0.8575091   0.9797404  )
        31           V   tau(  31) = (   0.4908982   1.3475143   0.9797404  )
        32           V   tau(  32) = (   0.9908982   1.3475143   0.9797404  )
        33           O   tau(  33) = (   0.5715696   0.2487756   0.2344620  )
        34           O   tau(  34) = (   1.0715696   0.2487756   0.2344620  )
        35           O   tau(  35) = (   0.5682599   0.7387808   0.2344620  )
        36           O   tau(  36) = (   1.0682599   0.7387808   0.2344620  )
        37           O   tau(  37) = (   0.8199148   0.4937782   0.7975312  )
        38           O   tau(  38) = (   1.3199148   0.4937782   0.7975312  )
        39           O   tau(  39) = (   0.8166050   0.9837834   0.7975312  )
        40           O   tau(  40) = (   1.3166050   0.9837834   0.7975312  )
        41           O   tau(  41) = (   0.4234657   0.4862321   0.2344620  )
        42           O   tau(  42) = (   0.9234657   0.4862321   0.2344620  )
        43           O   tau(  43) = (   0.4201560   0.9762373   0.2344620  )
        44           O   tau(  44) = (   0.9201560   0.9762373   0.2344620  )
        45           O   tau(  45) = (   0.6718109   0.7312347   0.7975312  )
        46           O   tau(  46) = (   1.1718109   0.7312347   0.7975312  )
        47           O   tau(  47) = (   0.6685011   1.2212399   0.7975312  )
        48           O   tau(  48) = (   1.1685011   1.2212399   0.7975312  )
        49           O   tau(  49) = (   0.1734657   0.4862321   0.3286072  )
        50           O   tau(  50) = (   0.6734657   0.4862321   0.3286072  )
        51           O   tau(  51) = (   0.1701560   0.9762373   0.3286072  )
        52           O   tau(  52) = (   0.6701560   0.9762373   0.3286072  )
        53           O   tau(  53) = (   0.4218109   0.7312347   0.8916764  )
        54           O   tau(  54) = (   0.9218109   0.7312347   0.8916764  )
        55           O   tau(  55) = (   0.4185011   1.2212399   0.8916764  )
        56           O   tau(  56) = (   0.9185011   1.2212399   0.8916764  )
        57           O   tau(  57) = (   0.3215696   0.2487756   0.3286072  )
        58           O   tau(  58) = (   0.8215696   0.2487756   0.3286072  )
        59           O   tau(  59) = (   0.3182599   0.7387808   0.3286072  )
        60           O   tau(  60) = (   0.8182599   0.7387808   0.3286072  )
        61           O   tau(  61) = (   0.5699148   0.4937782   0.8916764  )
        62           O   tau(  62) = (   1.0699148   0.4937782   0.8916764  )
        63           O   tau(  63) = (   0.5666050   0.9837834   0.8916764  )
        64           O   tau(  64) = (   1.0666050   0.9837834   0.8916764  )
        65           O   tau(  65) = (   0.6257292   0.6766972   0.5059740  )
        66           O   tau(  66) = (   1.1257292   0.6766972   0.5059740  )
        67           O   tau(  67) = (   0.6224195   1.1667024   0.5059740  )
        68           O   tau(  68) = (   1.1224195   1.1667024   0.5059740  )
        69           O   tau(  69) = (   0.8740744   0.9216998   1.0690432  )
        70           O   tau(  70) = (   1.3740744   0.9216998   1.0690432  )
        71           O   tau(  71) = (   0.8707646   1.4117049   1.0690432  )
        72           O   tau(  72) = (   1.3707646   1.4117049   1.0690432  )
        73           O   tau(  73) = (   0.3659964   0.5483158   0.5059740  )
        74           O   tau(  74) = (   0.8659964   0.5483158   0.5059740  )
        75           O   tau(  75) = (   0.3626866   1.0383210   0.5059740  )
        76           O   tau(  76) = (   0.8626866   1.0383210   0.5059740  )
        77           O   tau(  77) = (   0.6143415   0.7933184   1.0690432  )
        78           O   tau(  78) = (   1.1143415   0.7933184   1.0690432  )
        79           O   tau(  79) = (   0.6110318   1.2833236   1.0690432  )
        80           O   tau(  80) = (   1.1110318   1.2833236   1.0690432  )
        81           O   tau(  81) = (   0.1193061   0.0583106   0.0570952  )
        82           O   tau(  82) = (   0.6193061   0.0583106   0.0570952  )
        83           O   tau(  83) = (   0.1159964   0.5483158   0.0570952  )
        84           O   tau(  84) = (   0.6159964   0.5483158   0.0570952  )
        85           O   tau(  85) = (   0.3676513   0.3033132   0.6201644  )
        86           O   tau(  86) = (   0.8676513   0.3033132   0.6201644  )
        87           O   tau(  87) = (   0.3643415   0.7933184   0.6201644  )
        88           O   tau(  88) = (   0.8643415   0.7933184   0.6201644  )
        89           O   tau(  89) = (   0.3790390   0.1866920   0.0570952  )
        90           O   tau(  90) = (   0.8790390   0.1866920   0.0570952  )
        91           O   tau(  91) = (   0.3757292   0.6766972   0.0570952  )
        92           O   tau(  92) = (   0.8757292   0.6766972   0.0570952  )
        93           O   tau(  93) = (   0.6273841   0.4316946   0.6201644  )
        94           O   tau(  94) = (   1.1273841   0.4316946   0.6201644  )
        95           O   tau(  95) = (   0.6240744   0.9216998   0.6201644  )
        96           O   tau(  96) = (   1.1240744   0.9216998   0.6201644  )

     number of k points=     4
                       cart. coord. in units 2pi/alat
        k(    1) = (   0.2500000   0.2567880   0.0000000), wk =   0.5000000
        k(    2) = (   0.2500000   0.2567880  -0.4439951), wk =   0.5000000
        k(    3) = (   0.2500000  -0.2534107   0.2219976), wk =   0.5000000
        k(    4) = (  -0.2500000   0.2534107   0.2219976), wk =   0.5000000

     Dense  grid:   660405 G-vectors     FFT dimensions: ( 108, 108, 144)

     Estimated max dynamical RAM per process >       2.39 GB

     Estimated total dynamical RAM >       9.55 GB

     Initial potential from superposition of free atoms

     starting charge  703.96725, renormalised to  704.00000
     Starting wfc are  544 randomized atomic wfcs

     total cpu time spent up to now is      110.3 secs

     Self-consistent Calculation

     iteration #  1     ecut=    70.00 Ry     beta= 0.70
     Davidson diagonalization with overlap
     ethr =  1.00E-02,  avg # of iterations =  1.0

     total cpu time spent up to now is      270.1 secs

     total energy              =   -4949.30953357 Ry
     Harris-Foulkes estimate   =   -4981.30024507 Ry
     estimated scf accuracy    <      40.94440325 Ry

     iteration #  2     ecut=    70.00 Ry     beta= 0.70
     Davidson diagonalization with overlap
     ethr =  5.82E-03,  avg # of iterations =  4.0

     total cpu time spent up to now is      563.6 secs

     total energy              =   -4901.63389545 Ry
     Harris-Foulkes estimate   =   -5036.17088335 Ry
     estimated scf accuracy    <     570.75809238 Ry

     iteration #  3     ecut=    70.00 Ry     beta= 0.70
     Davidson diagonalization with overlap
     ethr =  5.82E-03,  avg # of iterations =  6.2

     total cpu time spent up to now is      869.2 secs

     total energy              =   -4970.01683619 Ry
     Harris-Foulkes estimate   =   -4977.38762044 Ry
     estimated scf accuracy    <      23.87855259 Ry

     iteration #  4     ecut=    70.00 Ry     beta= 0.70
     Davidson diagonalization with overlap
     ethr =  3.39E-03,  avg # of iterations =  2.0

     total cpu time spent up to now is     1066.9 secs

     total energy              =   -4972.11201327 Ry
     Harris-Foulkes estimate   =   -4972.74439302 Ry
     estimated scf accuracy    <       4.39725145 Ry

     iteration #  5     ecut=    70.00 Ry     beta= 0.70
     Davidson diagonalization with overlap
     ethr =  6.25E-04,  avg # of iterations =  2.0

     total cpu time spent up to now is     1232.0 secs

     total energy              =   -4971.79729009 Ry
     Harris-Foulkes estimate   =   -4972.31701677 Ry
     estimated scf accuracy    <       2.08427015 Ry

     iteration #  6     ecut=    70.00 Ry     beta= 0.70
     Davidson diagonalization with overlap
     ethr =  2.96E-04,  avg # of iterations =  3.0

     total cpu time spent up to now is     1437.0 secs

     total energy              =   -4972.08441836 Ry
     Harris-Foulkes estimate   =   -4972.11800242 Ry
     estimated scf accuracy    <       0.06109134 Ry

     iteration #  7     ecut=    70.00 Ry     beta= 0.70
     Davidson diagonalization with overlap
     ethr =  8.68E-06,  avg # of iterations =  4.0

     total cpu time spent up to now is     1701.1 secs

     total energy              =   -4972.09052783 Ry
     Harris-Foulkes estimate   =   -4972.12912763 Ry
     estimated scf accuracy    <       0.13199701 Ry

     iteration #  8     ecut=    70.00 Ry     beta= 0.70
     Davidson diagonalization with overlap
     ethr =  8.68E-06,  avg # of iterations =  3.0

     total cpu time spent up to now is     1938.8 secs

     total energy              =   -4972.09673137 Ry
     Harris-Foulkes estimate   =   -4972.11810264 Ry
     estimated scf accuracy    <       0.06540076 Ry

     iteration #  9     ecut=    70.00 Ry     beta= 0.70
     Davidson diagonalization with overlap
     ethr =  8.68E-06,  avg # of iterations =  3.0

     total cpu time spent up to now is     2172.8 secs

     total energy              =   -4972.10904567 Ry
     Harris-Foulkes estimate   =   -4972.11369268 Ry
     estimated scf accuracy    <       0.02789500 Ry

     iteration # 10     ecut=    70.00 Ry     beta= 0.70
     Davidson diagonalization with overlap
     ethr =  3.96E-06,  avg # of iterations =  2.2

     total cpu time spent up to now is     2350.4 secs

     total energy              =   -4972.10805639 Ry
     Harris-Foulkes estimate   =   -4972.11126647 Ry
     estimated scf accuracy    <       0.01124142 Ry

     iteration # 11     ecut=    70.00 Ry     beta= 0.70
     Davidson diagonalization with overlap
     ethr =  1.60E-06,  avg # of iterations =  3.0

     total cpu time spent up to now is     2555.5 secs

     total energy              =   -4972.10946553 Ry
     Harris-Foulkes estimate   =   -4972.10958187 Ry
     estimated scf accuracy    <       0.00030101 Ry

     iteration # 12     ecut=    70.00 Ry     beta= 0.70
     Davidson diagonalization with overlap
     ethr =  4.28E-08,  avg # of iterations =  4.0

     total cpu time spent up to now is     2805.7 secs

     total energy              =   -4972.10954369 Ry
     Harris-Foulkes estimate   =   -4972.10960799 Ry
     estimated scf accuracy    <       0.00024316 Ry

     iteration # 13     ecut=    70.00 Ry     beta= 0.70
     Davidson diagonalization with overlap
     ethr =  3.45E-08,  avg # of iterations =  3.0

     total cpu time spent up to now is     3022.1 secs

     total energy              =   -4972.10956326 Ry
     Harris-Foulkes estimate   =   -4972.10958406 Ry
     estimated scf accuracy    <       0.00007670 Ry

     iteration # 14     ecut=    70.00 Ry     beta= 0.70
     Davidson diagonalization with overlap
     ethr =  1.09E-08,  avg # of iterations =  3.0

     total cpu time spent up to now is     3236.0 secs

     total energy              =   -4972.10957187 Ry
     Harris-Foulkes estimate   =   -4972.10957511 Ry
     estimated scf accuracy    <       0.00000864 Ry

     iteration # 15     ecut=    70.00 Ry     beta= 0.70
     Davidson diagonalization with overlap
     ethr =  1.23E-09,  avg # of iterations =  3.0

     total cpu time spent up to now is     3484.3 secs

     total energy              =   -4972.10957195 Ry
     Harris-Foulkes estimate   =   -4972.10957611 Ry
     estimated scf accuracy    <       0.00001542 Ry

     iteration # 16     ecut=    70.00 Ry     beta= 0.70
     Davidson diagonalization with overlap
     ethr =  1.23E-09,  avg # of iterations =  3.0

     total cpu time spent up to now is     3714.4 secs

     total energy              =   -4972.10957381 Ry
     Harris-Foulkes estimate   =   -4972.10957401 Ry
     estimated scf accuracy    <       0.00000043 Ry

     iteration # 17     ecut=    70.00 Ry     beta= 0.70
     Davidson diagonalization with overlap
     ethr =  6.08E-11,  avg # of iterations =  3.2

     total cpu time spent up to now is     3969.7 secs

     total energy              =   -4972.10957385 Ry
     Harris-Foulkes estimate   =   -4972.10957410 Ry
     estimated scf accuracy    <       0.00000109 Ry

     iteration # 18     ecut=    70.00 Ry     beta= 0.70
     Davidson diagonalization with overlap
     ethr =  6.08E-11,  avg # of iterations =  3.0

     total cpu time spent up to now is     4209.3 secs

     total energy              =   -4972.10957396 Ry
     Harris-Foulkes estimate   =   -4972.10957400 Ry
     estimated scf accuracy    <       0.00000012 Ry

     iteration # 19     ecut=    70.00 Ry     beta= 0.70
     Davidson diagonalization with overlap
     ethr =  1.70E-11,  avg # of iterations =  3.0

     total cpu time spent up to now is     4433.8 secs

     total energy              =   -4972.10957398 Ry
     Harris-Foulkes estimate   =   -4972.10957398 Ry
     estimated scf accuracy    <       0.00000002 Ry

     iteration # 20     ecut=    70.00 Ry     beta= 0.70
     Davidson diagonalization with overlap
     ethr =  3.00E-12,  avg # of iterations =  3.0

     total cpu time spent up to now is     4663.2 secs

     total energy              =   -4972.10957398 Ry
     Harris-Foulkes estimate   =   -4972.10957398 Ry
     estimated scf accuracy    <          7.0E-09 Ry

     iteration # 21     ecut=    70.00 Ry     beta= 0.70
     Davidson diagonalization with overlap
     ethr =  9.91E-13,  avg # of iterations =  3.0

     total cpu time spent up to now is     4887.4 secs

     total energy              =   -4972.10957398 Ry
     Harris-Foulkes estimate   =   -4972.10957398 Ry
     estimated scf accuracy    <          1.7E-09 Ry

     iteration # 22     ecut=    70.00 Ry     beta= 0.70
     Davidson diagonalization with overlap
     ethr =  2.37E-13,  avg # of iterations =  3.0

     total cpu time spent up to now is     5118.1 secs

     End of self-consistent calculation

          k = 0.2500 0.2568 0.0000 ( 82568 PWs)   bands (ev):

   -14.4884 -14.4872 -14.4859 -14.4854 -14.4842 -14.4827 -14.4821 -14.4812
   -14.4782 -14.4699 -14.4682 -14.4669 -14.4637 -14.4635 -14.4591 -14.4570
   -14.4524 -14.4505 -14.4482 -14.4365 -14.4339 -14.4323 -14.4297 -14.4253
   -14.4238 -14.4139 -14.4116 -14.4067 -14.4060 -14.4057 -14.4043 -14.4029
   -14.4023 -14.3994 -14.3989 -14.3986 -14.3979 -14.3970 -14.3956 -14.3950
   -14.3939 -14.3930 -14.3929 -14.3924 -14.3909 -14.3906 -14.3899 -14.3888
   -14.3883 -14.3858 -14.3846 -14.3832 -14.3821 -14.3804 -14.3800 -14.3798
   -14.3788 -14.3750 -14.3730 -14.3702 -14.3692 -14.3670 -14.3639 -14.3620
   -14.3606 -14.3603 -14.3586 -14.3579 -14.3564 -14.3532 -14.3525 -14.3522
   -14.3504 -14.3496 -14.3474 -14.3462 -14.3458 -14.3429 -14.3405 -14.3367
   -10.4948 -10.2945 -10.1678 -10.1612 -10.1221 -10.1155  -9.9289  -9.8037
    -9.6787  -9.6064  -9.6018  -9.6010  -9.5960  -9.5440  -9.4680  -9.3933
    -9.3587  -9.3241  -9.3191  -9.3144  -9.3033  -9.2815  -9.2794  -9.2514
    -9.2425  -9.1701  -9.1473  -9.1158  -9.1102  -9.0854  -9.0817  -9.0660
    -9.0639  -9.0419  -9.0407  -9.0385  -8.9761  -8.9724  -8.9541  -8.9462
    -8.9361  -8.9309  -8.9254  -8.8990  -8.8934  -8.8899  -8.8879  -8.8626
    -8.8275  -8.8256  -8.8232  -8.8218  -8.8208  -8.8047  -8.7858  -8.7824
    -8.7765  -8.7528  -8.7154  -8.7075  -8.7023  -8.6893  -8.6841  -8.6592
    -2.2084  -2.0756  -2.0719  -1.9652  -1.9033  -1.8998  -1.8934  -1.7947
    -1.5982  -1.5537  -1.5505  -1.5040  -1.4728  -1.3602  -1.3575  -1.3053
     2.4195   2.4646   2.4973   2.5023   2.5543   2.5551   2.6750   2.7349
     2.7370   2.7421   2.7514   2.7522   2.7664   2.7715   2.7761   2.8348
     2.8371   2.9411   2.9517   2.9759   2.9780   3.0038   3.1124   3.1795
     3.1823   3.2212   3.2504   3.2547   3.2815   3.3618   3.3859   3.3864
     3.4141   3.4215   3.4236   3.5347   3.5355   3.6266   3.6426   3.7103
     3.7133   3.7694   3.7756   3.7913   3.8970   3.8977   3.8996   3.9695
     3.9952   4.0184   4.0280   4.0414   4.0420   4.0442   4.0453   4.1463
     4.1867   4.2077   4.2103   4.2365   4.2388   4.2417   4.2456   4.2676
     4.2835   4.2869   4.3014   4.3517   4.3652   4.3674   4.3719   4.3763
     4.3827   4.3835   4.4057   4.4088   4.4427   4.4876   4.4929   4.4952
     4.5349   4.5399   4.6149   4.6351   4.6364   4.6417   4.6461   4.6720
     4.6743   4.6799   4.6965   4.6995   4.7132   4.7215   4.7676   4.7693
     4.7716   4.8416   4.8608   4.8623   4.9204   4.9337   5.0018   5.0072
     5.0087   5.0561   5.0576   5.0928   5.0946   5.1134   5.1229   5.1236
     5.1454   5.1465   5.2143   5.2740   5.2860   5.2877   5.2889   5.3621
     5.3686   5.3695   5.3945   5.3971   5.4243   5.5197   5.5211   5.5456
     5.6493   5.7447   5.7468   5.7513   5.8385   5.8542   5.8546   5.8702
     5.8909   5.9898   5.9927   5.9937   6.0032   6.0644   6.0656   6.1333
     6.1354   6.1561   6.2485   6.2703   6.2730   6.2736   6.2742   6.2761
     6.2849   6.2870   6.2958   6.4116   6.4127   6.4158   6.4190   6.4233
     6.4639   6.4673   6.4741   6.4755   6.4927   6.5822   6.5874   6.5922
     6.6961   6.6977   6.7267   6.7903   6.7932   6.7959   6.8120   6.8685
     6.8743   6.8788   6.8801   6.9327   6.9431   6.9458   6.9487   6.9894
     6.9921   7.0641   7.1488   7.2876   7.2904   7.3677   7.3709   7.4775

          k = 0.2500 0.2568-0.4440 ( 82488 PWs)   bands (ev):

   -14.4886 -14.4865 -14.4859 -14.4856 -14.4853 -14.4832 -14.4823 -14.4784
   -14.4754 -14.4747 -14.4719 -14.4609 -14.4585 -14.4574 -14.4568 -14.4555
   -14.4538 -14.4529 -14.4510 -14.4495 -14.4354 -14.4330 -14.4308 -14.4232
   -14.4208 -14.4173 -14.4152 -14.4144 -14.4080 -14.4060 -14.4048 -14.4030
   -14.4003 -14.3997 -14.3989 -14.3984 -14.3980 -14.3973 -14.3970 -14.3955
   -14.3939 -14.3931 -14.3916 -14.3913 -14.3900 -14.3894 -14.3888 -14.3859
   -14.3848 -14.3841 -14.3835 -14.3829 -14.3799 -14.3769 -14.3747 -14.3729
   -14.3720 -14.3713 -14.3710 -14.3707 -14.3704 -14.3701 -14.3685 -14.3679
   -14.3627 -14.3625 -14.3606 -14.3567 -14.3551 -14.3539 -14.3528 -14.3521
   -14.3515 -14.3501 -14.3486 -14.3480 -14.3478 -14.3427 -14.3405 -14.3361
   -10.4140 -10.4076 -10.2229 -10.1935 -10.0965 -10.0172  -9.8759  -9.8693
    -9.6760  -9.6000  -9.5584  -9.5136  -9.5102  -9.5037  -9.4932  -9.4892
    -9.4429  -9.4409  -9.3947  -9.3897  -9.2308  -9.2259  -9.2213  -9.1960
    -9.1914  -9.1717  -9.1684  -9.1529  -9.1428  -9.1378  -9.1227  -9.0847
    -9.0681  -9.0638  -9.0502  -8.9818  -8.9736  -8.9630  -8.9090  -8.9081
    -8.9018  -8.8991  -8.8936  -8.8908  -8.8867  -8.8795  -8.8781  -8.8735
    -8.8537  -8.8412  -8.8325  -8.8289  -8.8172  -8.8153  -8.8007  -8.7869
    -8.7835  -8.7647  -8.7204  -8.6981  -8.6939  -8.6878  -8.6836  -8.6814
    -2.1223  -2.1007  -2.0968  -2.0224  -1.9816  -1.8528  -1.8493  -1.7729
    -1.6574  -1.5455  -1.5424  -1.4956  -1.3903  -1.3787  -1.3757  -1.3306
     2.4964   2.5021   2.5657   2.5677   2.5713   2.5727   2.6234   2.6600
     2.6632   2.7252   2.7272   2.7502   2.7558   2.7769   2.8687   2.8698
     2.8711   2.8748   2.8767   2.8807   2.9158   3.0340   3.0924   3.1333
     3.1391   3.1402   3.2575   3.2606   3.2726   3.2865   3.2970   3.2993
     3.3719   3.4349   3.4615   3.4627   3.6017   3.6039   3.6717   3.7708
     3.7985   3.8286   3.9019   3.9039   3.9852   3.9869   4.0150   4.0365
     4.0474   4.0662   4.0840   4.0934   4.1172   4.1205   4.1495   4.1706
     4.1713   4.2045   4.2223   4.2230   4.2241   4.2366   4.2644   4.2837
     4.2867   4.2959   4.2982   4.2991   4.3187   4.3392   4.3410   4.3436
     4.4058   4.4305   4.4331   4.4345   4.4723   4.4735   4.4749   4.4789
     4.4803   4.4825   4.5269   4.5325   4.5502   4.5538   4.6015   4.6253
     4.6260   4.6417   4.6864   4.6876   4.7304   4.7917   4.8221   4.8235
     4.8317   4.8320   4.8639   4.8773   4.8798   4.8854   4.8865   4.8974
     4.8989   4.9910   5.0340   5.0384   5.0932   5.1057   5.1170   5.1534
     5.1645   5.1669   5.2050   5.2266   5.2454   5.2469   5.2548   5.2752
     5.3079   5.3365   5.3373   5.4455   5.4718   5.5701   5.5719   5.6567
     5.7134   5.7950   5.7993   5.8013   5.8116   5.8867   5.8873   5.9153
     5.9799   6.0131   6.0298   6.0316   6.0558   6.0658   6.0673   6.0686
     6.1161   6.1612   6.1687   6.1706   6.1879   6.2008   6.2032   6.2758
     6.3440   6.3545   6.3561   6.4005   6.4032   6.4108   6.4904   6.4926
     6.5010   6.5127   6.5242   6.5265   6.5777   6.5876   6.6181   6.6364
     6.6379   6.6574   6.6851   6.6883   6.7862   6.7897   6.8002   6.8051
     6.8249   6.8800   6.8819   6.9343   6.9371   6.9542   6.9570   6.9717
     7.0244   7.0313   7.0885   7.1805   7.3426   7.3457   7.4395   7.5543

          k = 0.2500-0.2534 0.2220 ( 82555 PWs)   bands (ev):

   -14.4886 -14.4873 -14.4868 -14.4850 -14.4841 -14.4838 -14.4834 -14.4777
   -14.4753 -14.4740 -14.4703 -14.4635 -14.4610 -14.4604 -14.4593 -14.4576
   -14.4540 -14.4508 -14.4476 -14.4427 -14.4359 -14.4317 -14.4283 -14.4259
   -14.4226 -14.4159 -14.4121 -14.4093 -14.4081 -14.4079 -14.4053 -14.4043
   -14.4003 -14.3994 -14.3988 -14.3980 -14.3973 -14.3969 -14.3955 -14.3944
   -14.3937 -14.3933 -14.3915 -14.3909 -14.3904 -14.3902 -14.3895 -14.3886
   -14.3871 -14.3849 -14.3848 -14.3837 -14.3829 -14.3797 -14.3762 -14.3751
   -14.3741 -14.3732 -14.3718 -14.3709 -14.3703 -14.3682 -14.3658 -14.3653
   -14.3623 -14.3613 -14.3570 -14.3567 -14.3565 -14.3555 -14.3524 -14.3514
   -14.3508 -14.3504 -14.3481 -14.3475 -14.3468 -14.3421 -14.3398 -14.3371
   -10.4768 -10.3411 -10.1998 -10.1558 -10.1043 -10.0276  -9.9430  -9.8691
    -9.6895  -9.6142  -9.6072  -9.5873  -9.5724  -9.4708  -9.4156  -9.4075
    -9.4063  -9.3897  -9.3830  -9.3597  -9.2461  -9.2341  -9.2231  -9.2014
    -9.1962  -9.1774  -9.1647  -9.1328  -9.1206  -9.1181  -9.1110  -9.1086
    -9.0628  -9.0581  -9.0570  -9.0240  -9.0226  -9.0100  -8.9365  -8.9356
    -8.9315  -8.9150  -8.9130  -8.8897  -8.8865  -8.8842  -8.8503  -8.8453
    -8.8413  -8.8403  -8.8083  -8.7964  -8.7949  -8.7853  -8.7837  -8.7720
    -8.7687  -8.7637  -8.7596  -8.7329  -8.7115  -8.7044  -8.6771  -8.6496
    -2.1759  -2.1131  -2.0309  -2.0117  -1.9597  -1.8803  -1.8246  -1.8183
    -1.6238  -1.5605  -1.5195  -1.5108  -1.4291  -1.3971  -1.3353  -1.3236
     2.4309   2.4823   2.5242   2.5567   2.5778   2.5810   2.5839   2.6385
     2.6918   2.7021   2.7262   2.7413   2.7831   2.7909   2.8055   2.8413
     2.8435   2.8600   3.0155   3.0339   3.0564   3.0835   3.1177   3.1268
     3.1425   3.1915   3.1952   3.2111   3.2342   3.2548   3.3129   3.3734
     3.5131   3.5254   3.5408   3.5509   3.5759   3.6006   3.6506   3.6571
     3.6884   3.6971   3.8619   3.8733   3.9117   3.9343   3.9456   3.9522
     3.9849   3.9867   4.0116   4.0484   4.0987   4.1149   4.1279   4.1413
     4.1485   4.1958   4.2015   4.2057   4.2128   4.2316   4.2338   4.2428
     4.2498   4.2521   4.2943   4.3076   4.3412   4.3554   4.3569   4.3835
     4.4244   4.4275   4.4331   4.4450   4.4534   4.4691   4.4972   4.5293
     4.5392   4.5407   4.5428   4.5654   4.5733   4.6679   4.6700   4.6835
     4.6892   4.7127   4.7347   4.7387   4.7497   4.7535   4.7572   4.7627
     4.7918   4.7979   4.8716   4.8755   4.8773   4.9046   4.9322   4.9651
     4.9764   5.0003   5.0318   5.0501   5.0930   5.0956   5.1230   5.1781
     5.1858   5.2030   5.2306   5.2571   5.2661   5.2684   5.2967   5.3010
     5.3743   5.3769   5.4499   5.4664   5.5040   5.5406   5.5445   5.6073
     5.6764   5.6877   5.6924   5.7131   5.7215   5.7497   5.8085   5.8543
     5.8894   5.9406   5.9613   5.9763   5.9886   6.0380   6.0477   6.1431
     6.1515   6.2007   6.2284   6.2533   6.2723   6.2750   6.2801   6.3113
     6.3354   6.3528   6.3587   6.3777   6.4243   6.4334   6.4345   6.4785
     6.4797   6.5022   6.5550   6.5683   6.6150   6.6212   6.6619   6.6650
     6.6907   6.6925   6.6948   6.7219   6.7263   6.7321   6.7487   6.7898
     6.8301   6.8706   6.8875   6.9221   6.9379   6.9430   6.9571   6.9794
     6.9818   7.0796   7.1202   7.2381   7.2882   7.3055   7.4633   7.4682

          k =-0.2500 0.2534 0.2220 ( 82555 PWs)   bands (ev):

   -14.4886 -14.4874 -14.4868 -14.4851 -14.4841 -14.4838 -14.4833 -14.4776
   -14.4753 -14.4740 -14.4703 -14.4636 -14.4611 -14.4603 -14.4593 -14.4576
   -14.4540 -14.4508 -14.4476 -14.4427 -14.4359 -14.4318 -14.4283 -14.4259
   -14.4226 -14.4159 -14.4121 -14.4094 -14.4080 -14.4078 -14.4054 -14.4042
   -14.4004 -14.3993 -14.3986 -14.3981 -14.3974 -14.3968 -14.3955 -14.3944
   -14.3937 -14.3933 -14.3916 -14.3909 -14.3905 -14.3900 -14.3895 -14.3887
   -14.3871 -14.3851 -14.3847 -14.3836 -14.3830 -14.3796 -14.3764 -14.3749
   -14.3742 -14.3732 -14.3718 -14.3710 -14.3702 -14.3684 -14.3656 -14.3653
   -14.3624 -14.3612 -14.3570 -14.3567 -14.3565 -14.3554 -14.3525 -14.3513
   -14.3510 -14.3503 -14.3481 -14.3474 -14.3469 -14.3421 -14.3398 -14.3371
   -10.4768 -10.3411 -10.1998 -10.1558 -10.1044 -10.0275  -9.9430  -9.8691
    -9.6898  -9.6139  -9.6072  -9.5871  -9.5725  -9.4707  -9.4157  -9.4075
    -9.4064  -9.3900  -9.3832  -9.3594  -9.2463  -9.2342  -9.2226  -9.2015
    -9.1963  -9.1773  -9.1643  -9.1328  -9.1208  -9.1182  -9.1113  -9.1084
    -9.0627  -9.0584  -9.0571  -9.0244  -9.0218  -9.0099  -8.9366  -8.9355
    -8.9317  -8.9148  -8.9133  -8.8898  -8.8865  -8.8840  -8.8502  -8.8452
    -8.8421  -8.8394  -8.8083  -8.7970  -8.7947  -8.7848  -8.7836  -8.7723
    -8.7686  -8.7639  -8.7593  -8.7329  -8.7115  -8.7044  -8.6771  -8.6497
    -2.1759  -2.1131  -2.0309  -2.0117  -1.9596  -1.8804  -1.8248  -1.8183
    -1.6236  -1.5606  -1.5195  -1.5109  -1.4291  -1.3971  -1.3353  -1.3236
     2.4309   2.4823   2.5241   2.5569   2.5784   2.5810   2.5839   2.6381
     2.6912   2.7023   2.7260   2.7406   2.7829   2.7910   2.8063   2.8412
     2.8438   2.8596   3.0154   3.0341   3.0565   3.0835   3.1174   3.1272
     3.1426   3.1916   3.1949   3.2113   3.2342   3.2546   3.3125   3.3737
     3.5131   3.5259   3.5410   3.5510   3.5761   3.6006   3.6505   3.6574
     3.6880   3.6973   3.8618   3.8730   3.9121   3.9342   3.9451   3.9522
     3.9846   3.9867   4.0113   4.0484   4.0987   4.1149   4.1280   4.1414
     4.1486   4.1957   4.2017   4.2058   4.2124   4.2316   4.2337   4.2426
     4.2494   4.2526   4.2946   4.3075   4.3413   4.3556   4.3568   4.3840
     4.4248   4.4273   4.4334   4.4452   4.4536   4.4687   4.4968   4.5298
     4.5392   4.5403   4.5425   4.5655   4.5729   4.6675   4.6702   4.6837
     4.6892   4.7132   4.7346   4.7383   4.7496   4.7534   4.7570   4.7630
     4.7920   4.7978   4.8718   4.8756   4.8779   4.9042   4.9317   4.9649
     4.9765   5.0004   5.0318   5.0499   5.0934   5.0954   5.1234   5.1779
     5.1856   5.2027   5.2304   5.2568   5.2665   5.2686   5.2967   5.3008
     5.3746   5.3769   5.4499   5.4663   5.5040   5.5409   5.5446   5.6072
     5.6760   5.6881   5.6925   5.7130   5.7215   5.7495   5.8086   5.8543
     5.8897   5.9406   5.9611   5.9763   5.9886   6.0378   6.0481   6.1430
     6.1516   6.2009   6.2284   6.2533   6.2727   6.2744   6.2799   6.3114
     6.3354   6.3527   6.3586   6.3780   6.4241   6.4336   6.4341   6.4783
     6.4797   6.5023   6.5553   6.5679   6.6151   6.6215   6.6621   6.6649
     6.6909   6.6932   6.6937   6.7217   6.7267   6.7321   6.7484   6.7897
     6.8300   6.8707   6.8873   6.9218   6.9380   6.9428   6.9574   6.9795
     6.9818   7.0796   7.1202   7.2380   7.2884   7.3056   7.4635   7.4680

     highest occupied level (ev):     7.5543

!    total energy              =   -4972.10957398 Ry
     Harris-Foulkes estimate   =   -4972.10957398 Ry
     estimated scf accuracy    <          8.9E-10 Ry

     The total energy is the sum of the following terms:

     one-electron contribution =   -1192.93408324 Ry
     hartree contribution      =    1074.04894738 Ry
     xc contribution           =   -1297.69689281 Ry
     ewald contribution        =   -3555.52754530 Ry

     convergence has been achieved in  22 iterations

     Forces acting on atoms (cartesian axes, Ry/au):

     atom    1 type  1   force =     0.00135327    0.00126077   -0.01083868
     atom    2 type  1   force =    -0.00026333    0.00014829   -0.01362184
     atom    3 type  1   force =     0.00014685   -0.00025423   -0.01359179
     atom    4 type  1   force =    -0.00015370   -0.00012912   -0.01370667
     atom    5 type  1   force =    -0.00006311   -0.00011458   -0.01421539
     atom    6 type  1   force =     0.00010246   -0.00004175   -0.01412553
     atom    7 type  1   force =    -0.00010701    0.00009478   -0.01416126
     atom    8 type  1   force =     0.00005862    0.00007009   -0.01407837
     atom    9 type  1   force =    -0.00088366    0.00020486    0.01322341
     atom   10 type  1   force =     0.00061270    0.00030740    0.01392400
     atom   11 type  1   force =    -0.00013451   -0.00013074    0.01380340
     atom   12 type  1   force =     0.00016975   -0.00008084    0.01395838
     atom   13 type  1   force =     0.00014921   -0.00052730    0.01336118
     atom   14 type  1   force =    -0.00008709   -0.00013367    0.01376421
     atom   15 type  1   force =     0.00016555    0.00038564    0.01376927
     atom   16 type  1   force =    -0.00012687    0.00012866    0.01386086
     atom   17 type  2   force =     0.00045828   -0.00014076    0.00520967
     atom   18 type  2   force =    -0.00045052   -0.00052719    0.00469933
     atom   19 type  2   force =    -0.00070182   -0.00092338    0.00528194
     atom   20 type  2   force =    -0.00020176    0.00017493    0.00506934
     atom   21 type  2   force =    -0.00003037   -0.00001408    0.00441673
     atom   22 type  2   force =     0.00000150   -0.00000769    0.00433290
     atom   23 type  2   force =     0.00003533    0.00002792    0.00437020
     atom   24 type  2   force =    -0.00002170   -0.00000867    0.00431487
     atom   25 type  2   force =    -0.00035296   -0.00107206   -0.00533445
     atom   26 type  2   force =    -0.00009052   -0.00007017   -0.00458872
     atom   27 type  2   force =     0.00055018    0.00074849   -0.00494420
     atom   28 type  2   force =    -0.00007288    0.00003087   -0.00448470
     atom   29 type  2   force =    -0.00104441    0.00055120   -0.00524685
     atom   30 type  2   force =     0.00048647   -0.00013393   -0.00483184
     atom   31 type  2   force =    -0.00003429   -0.00004469   -0.00456468
     atom   32 type  2   force =     0.00004099   -0.00005991   -0.00451425
     atom   33 type  3   force =    -0.00015405   -0.00156770   -0.00009328
     atom   34 type  3   force =    -0.00015735   -0.00126074   -0.00019899
     atom   35 type  3   force =     0.00000296   -0.00102988    0.00027215
     atom   36 type  3   force =    -0.00029634   -0.00136165   -0.00001144
     atom   37 type  3   force =    -0.00017915   -0.00118877    0.00031251
     atom   38 type  3   force =    -0.00012757   -0.00119107    0.00027644
     atom   39 type  3   force =    -0.00019654   -0.00129322    0.00024704
     atom   40 type  3   force =    -0.00013252   -0.00127082    0.00026328
     atom   41 type  3   force =    -0.00045947    0.00184829   -0.00053985
     atom   42 type  3   force =    -0.00032535    0.00180149   -0.00001039
     atom   43 type  3   force =    -0.00020906    0.00187240    0.00002173
     atom   44 type  3   force =    -0.00025121    0.00187697    0.00005745
     atom   45 type  3   force =    -0.00034586    0.00167775    0.00037659
     atom   46 type  3   force =    -0.00033408    0.00167139    0.00031499
     atom   47 type  3   force =    -0.00034323    0.00164861    0.00029088
     atom   48 type  3   force =    -0.00036811    0.00162883    0.00029953
     atom   49 type  3   force =     0.00034015    0.00137202   -0.00036708
     atom   50 type  3   force =     0.00037220    0.00132366   -0.00018604
     atom   51 type  3   force =     0.00003625    0.00111000   -0.00036586
     atom   52 type  3   force =     0.00020388    0.00129269   -0.00022806
     atom   53 type  3   force =     0.00034819    0.00156854    0.00010083
     atom   54 type  3   force =     0.00018908    0.00139352   -0.00002116
     atom   55 type  3   force =     0.00018715    0.00129347   -0.00011585
     atom   56 type  3   force =     0.00012251    0.00125499   -0.00013332
     atom   57 type  3   force =    -0.00008111   -0.00206486   -0.00041053
     atom   58 type  3   force =     0.00031204   -0.00173472   -0.00031556
     atom   59 type  3   force =     0.00042977   -0.00135294   -0.00037313
     atom   60 type  3   force =     0.00036713   -0.00166103   -0.00027579
     atom   61 type  3   force =     0.00039541   -0.00164384   -0.00014606
     atom   62 type  3   force =     0.00036360   -0.00167776   -0.00015831
     atom   63 type  3   force =     0.00017372   -0.00204358    0.00003826
     atom   64 type  3   force =     0.00025313   -0.00184418   -0.00007655
     atom   65 type  3   force =    -0.00874525    0.00537868    0.00552249
     atom   66 type  3   force =    -0.00903617    0.00560137    0.00570713
     atom   67 type  3   force =    -0.00864514    0.00528180    0.00548501
     atom   68 type  3   force =    -0.00901884    0.00547951    0.00561222
     atom   69 type  3   force =    -0.00917779    0.00538819    0.00563854
     atom   70 type  3   force =    -0.00838878    0.00520518    0.00523391
     atom   71 type  3   force =    -0.00879585    0.00549975    0.00543176
     atom   72 type  3   force =    -0.00872456    0.00540043    0.00544295
     atom   73 type  3   force =     0.00867266   -0.00516738    0.00572664
     atom   74 type  3   force =     0.00843479   -0.00509837    0.00551245
     atom   75 type  3   force =     0.00858628   -0.00521683    0.00565652
     atom   76 type  3   force =     0.00842552   -0.00509805    0.00550318
     atom   77 type  3   force =     0.00908718   -0.00537488    0.00606376
     atom   78 type  3   force =     0.00828405   -0.00507621    0.00537034
     atom   79 type  3   force =     0.00840831   -0.00512888    0.00545781
     atom   80 type  3   force =     0.00841984   -0.00507036    0.00542132
     atom   81 type  3   force =     0.00878436   -0.00519779   -0.00554541
     atom   82 type  3   force =     0.00865742   -0.00531488   -0.00544032
     atom   83 type  3   force =     0.00900831   -0.00572708   -0.00582272
     atom   84 type  3   force =     0.00910358   -0.00555889   -0.00570777
     atom   85 type  3   force =     0.00872014   -0.00539621   -0.00531966
     atom   86 type  3   force =     0.00870229   -0.00537097   -0.00538353
     atom   87 type  3   force =     0.00873231   -0.00536246   -0.00535102
     atom   88 type  3   force =     0.00869663   -0.00535385   -0.00539613
     atom   89 type  3   force =    -0.00898845    0.00535348   -0.00592438
     atom   90 type  3   force =    -0.00830175    0.00509423   -0.00551346
     atom   91 type  3   force =    -0.00867651    0.00527479   -0.00575627
     atom   92 type  3   force =    -0.00833808    0.00504350   -0.00546647
     atom   93 type  3   force =    -0.00834340    0.00509978   -0.00535475
     atom   94 type  3   force =    -0.00842761    0.00508385   -0.00537355
     atom   95 type  3   force =    -0.00835990    0.00507538   -0.00538648
     atom   96 type  3   force =    -0.00840243    0.00508618   -0.00539899

     Total force =     0.087811     Total SCF correction =     0.000097


     Computing stress (Cartesian axis) and pressure

          total   stress  (Ry/bohr**3)                   (kbar)     P=   40.50
   0.00029071   0.00000067   0.00000004         42.76      0.10      0.01
   0.00000067   0.00026612   0.00000006          0.10     39.15      0.01
   0.00000004   0.00000006   0.00026913          0.01      0.01     39.59


     init_run     :    107.90s CPU    109.94s WALL (       1 calls)
     electrons    :   4917.42s CPU   5007.87s WALL (       1 calls)
     forces       :     34.59s CPU     35.08s WALL (       1 calls)
     stress       :    300.75s CPU    301.74s WALL (       1 calls)

     Called by init_run:
     wfcinit      :     94.24s CPU     95.97s WALL (       1 calls)
     potinit      :      4.55s CPU      4.57s WALL (       1 calls)

     Called by electrons:
     c_bands      :   4249.46s CPU   4320.15s WALL (      22 calls)
     sum_band     :    632.54s CPU    646.75s WALL (      22 calls)
     v_of_rho     :      8.90s CPU      9.12s WALL (      23 calls)
     newd         :     25.39s CPU     30.97s WALL (      23 calls)
     mix_rho      :      2.34s CPU      2.38s WALL (      22 calls)

     Called by c_bands:
     init_us_2    :     24.72s CPU     24.79s WALL (     188 calls)
     cegterg      :   4177.48s CPU   4248.12s WALL (      88 calls)

     Called by sum_band:
     sum_band:bec :      0.22s CPU      0.20s WALL (      88 calls)
     addusdens    :     36.36s CPU     42.39s WALL (      22 calls)

     Called by *egterg:
     h_psi        :   3076.82s CPU   3120.16s WALL (     363 calls)
     s_psi        :    314.10s CPU    314.12s WALL (     363 calls)
     g_psi        :      5.53s CPU      5.48s WALL (     271 calls)
     cdiaghg      :    132.63s CPU    132.75s WALL (     359 calls)

     Called by h_psi:
     h_psi:pot    :   3059.53s CPU   3102.73s WALL (     363 calls)
     h_psi:calbec :    296.50s CPU    296.73s WALL (     363 calls)
     vloc_psi     :   2447.40s CPU   2490.35s WALL (     363 calls)
     add_vuspsi   :    315.63s CPU    315.66s WALL (     363 calls)

     General routines
     calbec       :    419.82s CPU    420.17s WALL (     471 calls)
     fft          :      8.07s CPU      8.46s WALL (     323 calls)
     fftw         :   2487.05s CPU   2536.99s WALL (  212848 calls)

     Parallel routines
     fft_scatt_xy :    426.37s CPU    427.20s WALL (  213171 calls)
     fft_scatt_yz :    463.54s CPU    491.26s WALL (  213171 calls)

     PWSCF        :     1h29m CPU        1h30m WALL


   This run was terminated on:  18:16:28  27Oct2021            

=------------------------------------------------------------------------------=
   JOB DONE.
=------------------------------------------------------------------------------=
Note: The following floating-point exceptions are signalling: IEEE_DIVIDE_BY_ZERO
Note: The following floating-point exceptions are signalling: IEEE_DIVIDE_BY_ZERO
Note: The following floating-point exceptions are signalling: IEEE_DIVIDE_BY_ZERO
Note: The following floating-point exceptions are signalling: IEEE_DIVIDE_BY_ZERO IEEE_UNDERFLOW_FLAG IEEE_DENORMAL
