
     Program PWSCF v.6.2 (svn rev. 13949:13950) starts on 28Oct2021 at 12:48:34 

     This program is part of the open-source Quantum ESPRESSO suite
     for quantum simulation of materials; please cite
         "P. Giannozzi et al., J. Phys.:Condens. Matter 21 395502 (2009);
         "P. Giannozzi et al., J. Phys.:Condens. Matter 29 465901 (2017);
          URL http://www.quantum-espresso.org", 
     in publications or presentations arising from this work. More details at
     http://www.quantum-espresso.org/quote

     Parallel version (MPI), running on     4 processors

     MPI processes distributed on     1 nodes
     R & G space division:  proc/nbgrp/npool/nimage =       4
     Reading input from headeradd_supercell-015.in

     Current dimensions of program PWSCF are:
     Max number of different atomic species (ntypx) = 10
     Max number of k-points (npk) =  40000
     Max angular momentum in pseudopotentials (lmaxx) =  3
     Message from routine iosys:
     minimal I/O required, wf_collect reset to FALSE
               file Bi.pbe-dn-rrkjus_psl.1.0.0.UPF: wavefunction(s)  5D renormalized
               file O.pbe-rrkjus.UPF: wavefunction(s)  2S renormalized

     Subspace diagonalization in iterative solution of the eigenvalue problem:
     a serial algorithm will be used


     Parallelization info
     --------------------
     sticks:   dense  smooth     PW     G-vecs:    dense   smooth      PW
     Min        2104    2104    550               165101   165101   22036
     Max        2105    2105    551               165102   165102   22038
     Sum        8417    8417   2201               660405   660405   88147



     bravais-lattice index     =            0
     lattice parameter (alat)  =      19.6286  a.u.
     unit-cell volume          =    8346.2129 (a.u.)^3
     number of atoms/cell      =           96
     number of atomic types    =            3
     number of electrons       =       704.00
     number of Kohn-Sham states=          352
     kinetic-energy cutoff     =      70.0000  Ry
     charge density cutoff     =     280.0000  Ry
     convergence threshold     =      1.0E-09
     mixing beta               =       0.7000
     number of iterations used =            8  plain     mixing
     Exchange-correlation      =  SLA  PW   PBE  PBE ( 1  4  3  4 0 0)

     celldm(1)=  19.628585  celldm(2)=   0.000000  celldm(3)=   0.000000
     celldm(4)=   0.000000  celldm(5)=   0.000000  celldm(6)=   0.000000

     crystal axes: (cart. coord. in units of alat)
               a(1) = (   1.000000   0.000000   0.000000 )  
               a(2) = (  -0.006620   0.980010   0.000000 )  
               a(3) = (   0.496690   0.490005   1.126138 )  

     reciprocal axes: (cart. coord. in units 2 pi/alat)
               b(1) = (  1.000000  0.006755 -0.443995 )  
               b(2) = (  0.000000  1.020397 -0.443995 )  
               b(3) = (  0.000000 -0.000000  0.887990 )  


     PseudoPot. # 1 for Bi read from file:
     /home/uezono/pseudo/Bi.pbe-dn-rrkjus_psl.1.0.0.UPF
     MD5 check sum: f9abe7488ae443f53c935a63d0032572
     Pseudo is Ultrasoft + core correction, Zval = 15.0
     Generated using "atomic" code by A. Dal Corso  v.6.2.2
     Using radial grid of 1283 points,  6 beta functions with: 
                l(1) =   0
                l(2) =   0
                l(3) =   1
                l(4) =   1
                l(5) =   2
                l(6) =   2
     Q(r) pseudized with 0 coefficients 


     PseudoPot. # 2 for V  read from file:
     /home/uezono/pseudo/V.pbe-n-van.UPF
     MD5 check sum: ff5646be6093ca757d9525862f4bfff1
     Pseudo is Ultrasoft + core correction, Zval =  5.0
     Generated by new atomic code, or converted to UPF format
     Using radial grid of  853 points,  6 beta functions with: 
                l(1) =   0
                l(2) =   0
                l(3) =   1
                l(4) =   1
                l(5) =   2
                l(6) =   2
     Q(r) pseudized with  8 coefficients,  rinner =    1.000   1.000   1.000
                                                       1.000   1.000

     PseudoPot. # 3 for O  read from file:
     /home/uezono/pseudo/O.pbe-rrkjus.UPF
     MD5 check sum: fadcf19ee70a498d3030e2e79cf929a4
     Pseudo is Ultrasoft, Zval =  6.0
     Generated by new atomic code, or converted to UPF format
     Using radial grid of 1269 points,  4 beta functions with: 
                l(1) =   0
                l(2) =   0
                l(3) =   1
                l(4) =   1
     Q(r) pseudized with 0 coefficients 


     atomic species   valence    mass     pseudopotential
        Bi            15.00   208.98040     Bi( 1.00)
        V              5.00    50.94150     V ( 1.00)
        O              6.00    15.99940     O ( 1.00)

     No symmetry found



   Cartesian axes

     site n.     atom                  positions (alat units)
         1           Bi  tau(   1) = (   0.2475177   0.3675039   0.1503395  )
         2           Bi  tau(   2) = (   0.7475177   0.3675039   0.1503395  )
         3           Bi  tau(   3) = (   0.2442079   0.8575091   0.1503395  )
         4           Bi  tau(   4) = (   0.7442079   0.8575091   0.1503395  )
         5           Bi  tau(   5) = (   0.4958628   0.6125065   0.7134087  )
         6           Bi  tau(   6) = (   0.9958628   0.6125065   0.7134087  )
         7           Bi  tau(   7) = (   0.4925531   1.1025117   0.7134087  )
         8           Bi  tau(   8) = (   0.9925531   1.1025117   0.7134087  )
         9           Bi  tau(   9) = (   0.4975177   0.3675039   0.4127297  )
        10           Bi  tau(  10) = (   0.9975177   0.3675039   0.4127297  )
        11           Bi  tau(  11) = (   0.4942079   0.8575091   0.4127297  )
        12           Bi  tau(  12) = (   0.9942079   0.8575091   0.4127297  )
        13           Bi  tau(  13) = (   0.7458628   0.6125065   0.9757990  )
        14           Bi  tau(  14) = (   1.2458628   0.6125065   0.9757990  )
        15           Bi  tau(  15) = (   0.7425531   1.1025117   0.9757990  )
        16           Bi  tau(  16) = (   1.2425531   1.1025117   0.9757990  )
        17           V   tau(  17) = (   0.4991726   0.1225013   0.1463980  )
        18           V   tau(  18) = (   0.9991726   0.1225013   0.1463980  )
        19           V   tau(  19) = (   0.4958628   0.6125065   0.1463980  )
        20           V   tau(  20) = (   0.9958628   0.6125065   0.1463980  )
        21           V   tau(  21) = (   0.7475177   0.3675039   0.7094672  )
        22           V   tau(  22) = (   1.2475177   0.3675039   0.7094672  )
        23           V   tau(  23) = (   0.7442079   0.8575091   0.7094672  )
        24           V   tau(  24) = (   1.2442079   0.8575091   0.7094672  )
        25           V   tau(  25) = (   0.2458628   0.6125065   0.4166712  )
        26           V   tau(  26) = (   0.7458628   0.6125065   0.4166712  )
        27           V   tau(  27) = (   0.2425531   1.1025117   0.4166712  )
        28           V   tau(  28) = (   0.7425531   1.1025117   0.4166712  )
        29           V   tau(  29) = (   0.4942079   0.8575091   0.9797404  )
        30           V   tau(  30) = (   0.9942079   0.8575091   0.9797404  )
        31           V   tau(  31) = (   0.4908982   1.3475143   0.9797404  )
        32           V   tau(  32) = (   0.9908982   1.3475143   0.9797404  )
        33           O   tau(  33) = (   0.5715696   0.2487756   0.2344620  )
        34           O   tau(  34) = (   1.0715696   0.2487756   0.2344620  )
        35           O   tau(  35) = (   0.5682599   0.7387808   0.2344620  )
        36           O   tau(  36) = (   1.0682599   0.7387808   0.2344620  )
        37           O   tau(  37) = (   0.8199148   0.4937782   0.7975312  )
        38           O   tau(  38) = (   1.3199148   0.4937782   0.7975312  )
        39           O   tau(  39) = (   0.8166050   0.9837834   0.7975312  )
        40           O   tau(  40) = (   1.3166050   0.9837834   0.7975312  )
        41           O   tau(  41) = (   0.4234657   0.4862321   0.2344620  )
        42           O   tau(  42) = (   0.9234657   0.4862321   0.2344620  )
        43           O   tau(  43) = (   0.4201560   0.9762373   0.2344620  )
        44           O   tau(  44) = (   0.9201560   0.9762373   0.2344620  )
        45           O   tau(  45) = (   0.6718109   0.7312347   0.7975312  )
        46           O   tau(  46) = (   1.1718109   0.7312347   0.7975312  )
        47           O   tau(  47) = (   0.6685011   1.2212399   0.7975312  )
        48           O   tau(  48) = (   1.1685011   1.2212399   0.7975312  )
        49           O   tau(  49) = (   0.1734657   0.4862321   0.3286072  )
        50           O   tau(  50) = (   0.6734657   0.4862321   0.3286072  )
        51           O   tau(  51) = (   0.1701560   0.9762373   0.3286072  )
        52           O   tau(  52) = (   0.6701560   0.9762373   0.3286072  )
        53           O   tau(  53) = (   0.4218109   0.7312347   0.8916764  )
        54           O   tau(  54) = (   0.9218109   0.7312347   0.8916764  )
        55           O   tau(  55) = (   0.4185011   1.2212399   0.8916764  )
        56           O   tau(  56) = (   0.9185011   1.2212399   0.8916764  )
        57           O   tau(  57) = (   0.3215696   0.2487756   0.3286072  )
        58           O   tau(  58) = (   0.8215696   0.2487756   0.3286072  )
        59           O   tau(  59) = (   0.3182599   0.7387808   0.3286072  )
        60           O   tau(  60) = (   0.8182599   0.7387808   0.3286072  )
        61           O   tau(  61) = (   0.5699148   0.4937782   0.8916764  )
        62           O   tau(  62) = (   1.0699148   0.4937782   0.8916764  )
        63           O   tau(  63) = (   0.5666050   0.9837834   0.8916764  )
        64           O   tau(  64) = (   1.0666050   0.9837834   0.8916764  )
        65           O   tau(  65) = (   0.6257223   0.6777161   0.5059740  )
        66           O   tau(  66) = (   1.1257292   0.6766972   0.5059740  )
        67           O   tau(  67) = (   0.6224195   1.1667024   0.5059740  )
        68           O   tau(  68) = (   1.1224195   1.1667024   0.5059740  )
        69           O   tau(  69) = (   0.8740744   0.9216998   1.0690432  )
        70           O   tau(  70) = (   1.3740744   0.9216998   1.0690432  )
        71           O   tau(  71) = (   0.8707646   1.4117049   1.0690432  )
        72           O   tau(  72) = (   1.3707646   1.4117049   1.0690432  )
        73           O   tau(  73) = (   0.3659964   0.5483158   0.5059740  )
        74           O   tau(  74) = (   0.8659964   0.5483158   0.5059740  )
        75           O   tau(  75) = (   0.3626866   1.0383210   0.5059740  )
        76           O   tau(  76) = (   0.8626866   1.0383210   0.5059740  )
        77           O   tau(  77) = (   0.6143415   0.7933184   1.0690432  )
        78           O   tau(  78) = (   1.1143415   0.7933184   1.0690432  )
        79           O   tau(  79) = (   0.6110318   1.2833236   1.0690432  )
        80           O   tau(  80) = (   1.1110318   1.2833236   1.0690432  )
        81           O   tau(  81) = (   0.1193061   0.0583106   0.0570952  )
        82           O   tau(  82) = (   0.6193061   0.0583106   0.0570952  )
        83           O   tau(  83) = (   0.1159964   0.5483158   0.0570952  )
        84           O   tau(  84) = (   0.6159964   0.5483158   0.0570952  )
        85           O   tau(  85) = (   0.3676513   0.3033132   0.6201644  )
        86           O   tau(  86) = (   0.8676513   0.3033132   0.6201644  )
        87           O   tau(  87) = (   0.3643415   0.7933184   0.6201644  )
        88           O   tau(  88) = (   0.8643415   0.7933184   0.6201644  )
        89           O   tau(  89) = (   0.3790390   0.1866920   0.0570952  )
        90           O   tau(  90) = (   0.8790390   0.1866920   0.0570952  )
        91           O   tau(  91) = (   0.3757292   0.6766972   0.0570952  )
        92           O   tau(  92) = (   0.8757292   0.6766972   0.0570952  )
        93           O   tau(  93) = (   0.6273841   0.4316946   0.6201644  )
        94           O   tau(  94) = (   1.1273841   0.4316946   0.6201644  )
        95           O   tau(  95) = (   0.6240744   0.9216998   0.6201644  )
        96           O   tau(  96) = (   1.1240744   0.9216998   0.6201644  )

     number of k points=     4
                       cart. coord. in units 2pi/alat
        k(    1) = (   0.2500000   0.2567880   0.0000000), wk =   0.5000000
        k(    2) = (   0.2500000   0.2567880  -0.4439951), wk =   0.5000000
        k(    3) = (   0.2500000  -0.2534107   0.2219976), wk =   0.5000000
        k(    4) = (  -0.2500000   0.2534107   0.2219976), wk =   0.5000000

     Dense  grid:   660405 G-vectors     FFT dimensions: ( 108, 108, 144)

     Estimated max dynamical RAM per process >       2.39 GB

     Estimated total dynamical RAM >       9.55 GB

     Initial potential from superposition of free atoms

     starting charge  703.96725, renormalised to  704.00000
     Starting wfc are  544 randomized atomic wfcs

     total cpu time spent up to now is      110.3 secs

     Self-consistent Calculation

     iteration #  1     ecut=    70.00 Ry     beta= 0.70
     Davidson diagonalization with overlap
     ethr =  1.00E-02,  avg # of iterations =  1.0

     total cpu time spent up to now is      270.2 secs

     total energy              =   -4949.30500100 Ry
     Harris-Foulkes estimate   =   -4981.29972601 Ry
     estimated scf accuracy    <      40.94889059 Ry

     iteration #  2     ecut=    70.00 Ry     beta= 0.70
     Davidson diagonalization with overlap
     ethr =  5.82E-03,  avg # of iterations =  4.0

     total cpu time spent up to now is      563.9 secs

     total energy              =   -4901.62338550 Ry
     Harris-Foulkes estimate   =   -5036.20617854 Ry
     estimated scf accuracy    <     571.03511051 Ry

     iteration #  3     ecut=    70.00 Ry     beta= 0.70
     Davidson diagonalization with overlap
     ethr =  5.82E-03,  avg # of iterations =  6.2

     total cpu time spent up to now is      869.0 secs

     total energy              =   -4970.00722047 Ry
     Harris-Foulkes estimate   =   -4977.38420055 Ry
     estimated scf accuracy    <      23.89690258 Ry

     iteration #  4     ecut=    70.00 Ry     beta= 0.70
     Davidson diagonalization with overlap
     ethr =  3.39E-03,  avg # of iterations =  2.0

     total cpu time spent up to now is     1066.7 secs

     total energy              =   -4972.11063573 Ry
     Harris-Foulkes estimate   =   -4972.74388195 Ry
     estimated scf accuracy    <       4.39999083 Ry

     iteration #  5     ecut=    70.00 Ry     beta= 0.70
     Davidson diagonalization with overlap
     ethr =  6.25E-04,  avg # of iterations =  2.0

     total cpu time spent up to now is     1231.8 secs

     total energy              =   -4971.78972383 Ry
     Harris-Foulkes estimate   =   -4972.31536485 Ry
     estimated scf accuracy    <       2.09099907 Ry

     iteration #  6     ecut=    70.00 Ry     beta= 0.70
     Davidson diagonalization with overlap
     ethr =  2.97E-04,  avg # of iterations =  3.0

     total cpu time spent up to now is     1437.9 secs

     total energy              =   -4972.08191215 Ry
     Harris-Foulkes estimate   =   -4972.11862439 Ry
     estimated scf accuracy    <       0.06436706 Ry

     iteration #  7     ecut=    70.00 Ry     beta= 0.70
     Davidson diagonalization with overlap
     ethr =  9.14E-06,  avg # of iterations =  4.0

     total cpu time spent up to now is     1698.9 secs

     total energy              =   -4972.08538267 Ry
     Harris-Foulkes estimate   =   -4972.12830499 Ry
     estimated scf accuracy    <       0.11632548 Ry

     iteration #  8     ecut=    70.00 Ry     beta= 0.70
     Davidson diagonalization with overlap
     ethr =  9.14E-06,  avg # of iterations =  3.2

     total cpu time spent up to now is     1943.4 secs

     total energy              =   -4972.10488082 Ry
     Harris-Foulkes estimate   =   -4972.11543631 Ry
     estimated scf accuracy    <       0.04579438 Ry

     iteration #  9     ecut=    70.00 Ry     beta= 0.70
     Davidson diagonalization with overlap
     ethr =  6.50E-06,  avg # of iterations =  3.0

     total cpu time spent up to now is     2168.5 secs

     total energy              =   -4972.10857534 Ry
     Harris-Foulkes estimate   =   -4972.11388527 Ry
     estimated scf accuracy    <       0.02904693 Ry

     iteration # 10     ecut=    70.00 Ry     beta= 0.70
     Davidson diagonalization with overlap
     ethr =  4.13E-06,  avg # of iterations =  2.0

     total cpu time spent up to now is     2338.5 secs

     total energy              =   -4972.10798798 Ry
     Harris-Foulkes estimate   =   -4972.11033878 Ry
     estimated scf accuracy    <       0.00814092 Ry

     iteration # 11     ecut=    70.00 Ry     beta= 0.70
     Davidson diagonalization with overlap
     ethr =  1.16E-06,  avg # of iterations =  3.0

     total cpu time spent up to now is     2547.9 secs

     total energy              =   -4972.10939726 Ry
     Harris-Foulkes estimate   =   -4972.10946342 Ry
     estimated scf accuracy    <       0.00026947 Ry

     iteration # 12     ecut=    70.00 Ry     beta= 0.70
     Davidson diagonalization with overlap
     ethr =  3.83E-08,  avg # of iterations =  3.0

     total cpu time spent up to now is     2789.9 secs

     total energy              =   -4972.10941260 Ry
     Harris-Foulkes estimate   =   -4972.10949056 Ry
     estimated scf accuracy    <       0.00030441 Ry

     iteration # 13     ecut=    70.00 Ry     beta= 0.70
     Davidson diagonalization with overlap
     ethr =  3.83E-08,  avg # of iterations =  3.0

     total cpu time spent up to now is     3004.4 secs

     total energy              =   -4972.10943814 Ry
     Harris-Foulkes estimate   =   -4972.10945556 Ry
     estimated scf accuracy    <       0.00006305 Ry

     iteration # 14     ecut=    70.00 Ry     beta= 0.70
     Davidson diagonalization with overlap
     ethr =  8.96E-09,  avg # of iterations =  3.0

     total cpu time spent up to now is     3210.4 secs

     total energy              =   -4972.10944591 Ry
     Harris-Foulkes estimate   =   -4972.10944730 Ry
     estimated scf accuracy    <       0.00000350 Ry

     iteration # 15     ecut=    70.00 Ry     beta= 0.70
     Davidson diagonalization with overlap
     ethr =  4.97E-10,  avg # of iterations =  4.0

     total cpu time spent up to now is     3473.2 secs

     total energy              =   -4972.10944605 Ry
     Harris-Foulkes estimate   =   -4972.10944792 Ry
     estimated scf accuracy    <       0.00000680 Ry

     iteration # 16     ecut=    70.00 Ry     beta= 0.70
     Davidson diagonalization with overlap
     ethr =  4.97E-10,  avg # of iterations =  3.0

     total cpu time spent up to now is     3709.7 secs

     total energy              =   -4972.10944692 Ry
     Harris-Foulkes estimate   =   -4972.10944704 Ry
     estimated scf accuracy    <       0.00000030 Ry

     iteration # 17     ecut=    70.00 Ry     beta= 0.70
     Davidson diagonalization with overlap
     ethr =  4.27E-11,  avg # of iterations =  3.0

     total cpu time spent up to now is     3955.8 secs

     total energy              =   -4972.10944694 Ry
     Harris-Foulkes estimate   =   -4972.10944707 Ry
     estimated scf accuracy    <       0.00000053 Ry

     iteration # 18     ecut=    70.00 Ry     beta= 0.70
     Davidson diagonalization with overlap
     ethr =  4.27E-11,  avg # of iterations =  3.0

     total cpu time spent up to now is     4188.7 secs

     total energy              =   -4972.10944700 Ry
     Harris-Foulkes estimate   =   -4972.10944702 Ry
     estimated scf accuracy    <       0.00000006 Ry

     iteration # 19     ecut=    70.00 Ry     beta= 0.70
     Davidson diagonalization with overlap
     ethr =  7.93E-12,  avg # of iterations =  3.0

     total cpu time spent up to now is     4417.6 secs

     total energy              =   -4972.10944701 Ry
     Harris-Foulkes estimate   =   -4972.10944701 Ry
     estimated scf accuracy    <       0.00000001 Ry

     iteration # 20     ecut=    70.00 Ry     beta= 0.70
     Davidson diagonalization with overlap
     ethr =  2.08E-12,  avg # of iterations =  3.0

     total cpu time spent up to now is     4654.3 secs

     total energy              =   -4972.10944701 Ry
     Harris-Foulkes estimate   =   -4972.10944701 Ry
     estimated scf accuracy    <       0.00000001 Ry

     iteration # 21     ecut=    70.00 Ry     beta= 0.70
     Davidson diagonalization with overlap
     ethr =  1.52E-12,  avg # of iterations =  3.0

     total cpu time spent up to now is     4874.2 secs

     total energy              =   -4972.10944701 Ry
     Harris-Foulkes estimate   =   -4972.10944701 Ry
     estimated scf accuracy    <          1.7E-09 Ry

     iteration # 22     ecut=    70.00 Ry     beta= 0.70
     Davidson diagonalization with overlap
     ethr =  2.39E-13,  avg # of iterations =  3.0

     total cpu time spent up to now is     5107.7 secs

     total energy              =   -4972.10944701 Ry
     Harris-Foulkes estimate   =   -4972.10944701 Ry
     estimated scf accuracy    <          1.1E-09 Ry

     iteration # 23     ecut=    70.00 Ry     beta= 0.70
     Davidson diagonalization with overlap
     ethr =  1.62E-13,  avg # of iterations =  3.0

     total cpu time spent up to now is     5320.7 secs

     End of self-consistent calculation

          k = 0.2500 0.2568 0.0000 ( 82568 PWs)   bands (ev):

   -14.4872 -14.4868 -14.4867 -14.4848 -14.4836 -14.4830 -14.4826 -14.4811
   -14.4777 -14.4691 -14.4683 -14.4671 -14.4635 -14.4632 -14.4578 -14.4575
   -14.4515 -14.4512 -14.4481 -14.4363 -14.4336 -14.4308 -14.4304 -14.4250
   -14.4233 -14.4124 -14.4123 -14.4058 -14.4055 -14.4049 -14.4042 -14.4024
   -14.4019 -14.3985 -14.3980 -14.3979 -14.3970 -14.3967 -14.3948 -14.3946
   -14.3938 -14.3928 -14.3921 -14.3918 -14.3915 -14.3908 -14.3895 -14.3892
   -14.3871 -14.3857 -14.3839 -14.3828 -14.3809 -14.3807 -14.3796 -14.3792
   -14.3784 -14.3738 -14.3736 -14.3697 -14.3677 -14.3674 -14.3635 -14.3617
   -14.3599 -14.3593 -14.3590 -14.3577 -14.3560 -14.3529 -14.3526 -14.3512
   -14.3505 -14.3485 -14.3481 -14.3459 -14.3449 -14.3415 -14.3411 -14.3361
   -10.4960 -10.2965 -10.1665 -10.1659 -10.1206 -10.1201  -9.9302  -9.8058
    -9.6775  -9.6051  -9.6045  -9.5998  -9.5996  -9.5453  -9.4699  -9.3939
    -9.3598  -9.3209  -9.3206  -9.3143  -9.3023  -9.2800  -9.2794  -9.2526
    -9.2431  -9.1715  -9.1487  -9.1145  -9.1139  -9.0841  -9.0836  -9.0661
    -9.0634  -9.0423  -9.0401  -9.0397  -8.9741  -8.9737  -8.9533  -8.9451
    -8.9348  -8.9343  -8.9243  -8.8990  -8.8920  -8.8916  -8.8888  -8.8634
    -8.8254  -8.8245  -8.8238  -8.8219  -8.8210  -8.8047  -8.7839  -8.7831
    -8.7760  -8.7531  -8.7141  -8.7043  -8.7037  -8.6861  -8.6854  -8.6586
    -2.2087  -2.0740  -2.0737  -1.9655  -1.9018  -1.9016  -1.8934  -1.7947
    -1.5980  -1.5523  -1.5518  -1.5039  -1.4727  -1.3587  -1.3584  -1.3051
     2.4199   2.4646   2.4986   2.4989   2.5546   2.5547   2.6753   2.7357
     2.7360   2.7407   2.7503   2.7521   2.7645   2.7707   2.7756   2.8355
     2.8357   2.9408   2.9522   2.9760   2.9762   3.0042   3.1130   3.1807
     3.1809   3.2217   3.2517   3.2522   3.2809   3.3616   3.3862   3.3867
     3.4148   3.4222   3.4225   3.5349   3.5351   3.6271   3.6426   3.7114
     3.7117   3.7686   3.7768   3.7912   3.8972   3.8979   3.8984   3.9703
     3.9950   4.0188   4.0276   4.0424   4.0428   4.0437   4.0445   4.1464
     4.1864   4.2095   4.2103   4.2360   4.2396   4.2401   4.2454   4.2679
     4.2851   4.2855   4.3003   4.3515   4.3653   4.3698   4.3708   4.3760
     4.3827   4.3834   4.4053   4.4089   4.4418   4.4869   4.4934   4.4935
     4.5361   4.5379   4.6138   4.6347   4.6353   4.6446   4.6451   4.6732
     4.6735   4.6802   4.6967   4.7007   4.7137   4.7215   4.7672   4.7698
     4.7703   4.8417   4.8611   4.8618   4.9193   4.9343   5.0017   5.0081
     5.0082   5.0561   5.0564   5.0931   5.0935   5.1133   5.1229   5.1234
     5.1456   5.1461   5.2149   5.2738   5.2867   5.2874   5.2877   5.3619
     5.3690   5.3694   5.3938   5.3980   5.4241   5.5200   5.5209   5.5457
     5.6497   5.7460   5.7464   5.7517   5.8379   5.8538   5.8546   5.8703
     5.8909   5.9900   5.9930   5.9936   6.0046   6.0648   6.0652   6.1335
     6.1359   6.1558   6.2487   6.2717   6.2719   6.2742   6.2747   6.2760
     6.2852   6.2860   6.2960   6.4119   6.4129   6.4135   6.4194   6.4237
     6.4643   6.4647   6.4739   6.4746   6.4927   6.5825   6.5901   6.5907
     6.6962   6.6984   6.7261   6.7915   6.7919   6.7956   6.8126   6.8673
     6.8742   6.8786   6.8796   6.9329   6.9418   6.9472   6.9478   6.9906
     6.9907   7.0647   7.1492   7.2892   7.2895   7.3692   7.3700   7.4777

          k = 0.2500 0.2568-0.4440 ( 82488 PWs)   bands (ev):

   -14.4875 -14.4869 -14.4861 -14.4846 -14.4844 -14.4838 -14.4827 -14.4783
   -14.4753 -14.4733 -14.4726 -14.4607 -14.4577 -14.4568 -14.4564 -14.4559
   -14.4531 -14.4524 -14.4520 -14.4492 -14.4351 -14.4317 -14.4313 -14.4229
   -14.4204 -14.4159 -14.4156 -14.4139 -14.4076 -14.4057 -14.4034 -14.4031
   -14.3998 -14.3991 -14.3978 -14.3975 -14.3972 -14.3968 -14.3964 -14.3952
   -14.3935 -14.3925 -14.3917 -14.3916 -14.3901 -14.3886 -14.3882 -14.3856
   -14.3849 -14.3835 -14.3832 -14.3821 -14.3793 -14.3755 -14.3752 -14.3723
   -14.3715 -14.3712 -14.3711 -14.3703 -14.3697 -14.3691 -14.3681 -14.3678
   -14.3624 -14.3614 -14.3609 -14.3564 -14.3539 -14.3537 -14.3533 -14.3518
   -14.3511 -14.3497 -14.3490 -14.3475 -14.3467 -14.3414 -14.3410 -14.3356
   -10.4126 -10.4121 -10.2243 -10.1948 -10.0987 -10.0192  -9.8745  -9.8740
    -9.6769  -9.6004  -9.5595  -9.5149  -9.5090  -9.5084  -9.4909  -9.4904
    -9.4416  -9.4399  -9.3930  -9.3928  -9.2304  -9.2250  -9.2245  -9.1950
    -9.1945  -9.1697  -9.1692  -9.1519  -9.1416  -9.1387  -9.1237  -9.0863
    -9.0664  -9.0662  -9.0501  -8.9817  -8.9745  -8.9643  -8.9100  -8.9077
    -8.8998  -8.8994  -8.8943  -8.8891  -8.8886  -8.8807  -8.8756  -8.8751
    -8.8527  -8.8402  -8.8307  -8.8304  -8.8160  -8.8152  -8.8005  -8.7857
    -8.7851  -8.7644  -8.7191  -8.6973  -8.6920  -8.6849  -8.6845  -8.6820
    -2.1224  -2.0990  -2.0989  -2.0225  -1.9818  -1.8512  -1.8509  -1.7730
    -1.6575  -1.5440  -1.5436  -1.4956  -1.3900  -1.3772  -1.3769  -1.3303
     2.4967   2.4998   2.5660   2.5691   2.5696   2.5717   2.6232   2.6614
     2.6619   2.7257   2.7260   2.7516   2.7519   2.7769   2.8686   2.8699
     2.8702   2.8741   2.8784   2.8788   2.9145   3.0342   3.0927   3.1340
     3.1401   3.1405   3.2567   3.2598   3.2722   3.2856   3.2981   3.2984
     3.3722   3.4350   3.4611   3.4618   3.6029   3.6034   3.6714   3.7708
     3.7984   3.8282   3.9030   3.9038   3.9860   3.9866   4.0147   4.0361
     4.0472   4.0666   4.0837   4.0948   4.1180   4.1181   4.1497   4.1702
     4.1709   4.2037   4.2226   4.2227   4.2232   4.2374   4.2646   4.2852
     4.2854   4.2970   4.2982   4.2987   4.3193   4.3394   4.3398   4.3422
     4.4065   4.4312   4.4314   4.4339   4.4733   4.4736   4.4749   4.4787
     4.4816   4.4819   4.5265   4.5323   4.5517   4.5521   4.6019   4.6250
     4.6256   4.6411   4.6862   4.6866   4.7300   4.7920   4.8224   4.8230
     4.8319   4.8330   4.8646   4.8784   4.8786   4.8859   4.8865   4.8977
     4.8983   4.9906   5.0367   5.0373   5.0928   5.1064   5.1165   5.1530
     5.1652   5.1653   5.2046   5.2260   5.2459   5.2462   5.2550   5.2751
     5.3076   5.3367   5.3371   5.4456   5.4711   5.5705   5.5709   5.6568
     5.7132   5.7956   5.8002   5.8009   5.8118   5.8866   5.8872   5.9155
     5.9802   6.0128   6.0307   6.0312   6.0560   6.0661   6.0680   6.0688
     6.1154   6.1612   6.1698   6.1701   6.1880   6.2018   6.2025   6.2752
     6.3438   6.3551   6.3564   6.4020   6.4025   6.4096   6.4915   6.4919
     6.5015   6.5132   6.5235   6.5267   6.5771   6.5881   6.6171   6.6369
     6.6372   6.6577   6.6860   6.6863   6.7879   6.7888   6.8017   6.8022
     6.8252   6.8806   6.8808   6.9346   6.9354   6.9555   6.9561   6.9717
     7.0241   7.0311   7.0891   7.1807   7.3442   7.3448   7.4401   7.5547

          k = 0.2500-0.2534 0.2220 ( 82555 PWs)   bands (ev):

   -14.4878 -14.4868 -14.4858 -14.4854 -14.4852 -14.4841 -14.4823 -14.4777
   -14.4751 -14.4729 -14.4707 -14.4634 -14.4611 -14.4595 -14.4590 -14.4568
   -14.4543 -14.4507 -14.4476 -14.4424 -14.4356 -14.4309 -14.4286 -14.4255
   -14.4221 -14.4150 -14.4122 -14.4089 -14.4076 -14.4069 -14.4051 -14.4036
   -14.3997 -14.3984 -14.3980 -14.3972 -14.3967 -14.3963 -14.3951 -14.3941
   -14.3935 -14.3921 -14.3920 -14.3910 -14.3904 -14.3898 -14.3893 -14.3881
   -14.3868 -14.3852 -14.3839 -14.3829 -14.3826 -14.3790 -14.3761 -14.3745
   -14.3738 -14.3727 -14.3712 -14.3709 -14.3694 -14.3679 -14.3656 -14.3649
   -14.3618 -14.3607 -14.3571 -14.3565 -14.3560 -14.3548 -14.3526 -14.3510
   -14.3507 -14.3495 -14.3486 -14.3471 -14.3459 -14.3409 -14.3402 -14.3365
   -10.4781 -10.3429 -10.2012 -10.1570 -10.1064 -10.0294  -9.9445  -9.8712
    -9.6908  -9.6129  -9.6077  -9.5888  -9.5735  -9.4719  -9.4143  -9.4083
    -9.4066  -9.3902  -9.3830  -9.3605  -9.2472  -9.2334  -9.2225  -9.2013
    -9.1969  -9.1784  -9.1656  -9.1335  -9.1213  -9.1190  -9.1113  -9.1104
    -9.0627  -9.0574  -9.0569  -9.0235  -9.0221  -9.0100  -8.9363  -8.9358
    -8.9314  -8.9149  -8.9136  -8.8892  -8.8862  -8.8856  -8.8491  -8.8481
    -8.8418  -8.8396  -8.8077  -8.7957  -8.7948  -8.7841  -8.7829  -8.7719
    -8.7681  -8.7630  -8.7587  -8.7323  -8.7098  -8.7044  -8.6760  -8.6491
    -2.1761  -2.1131  -2.0312  -2.0120  -1.9599  -1.8804  -1.8248  -1.8182
    -1.6238  -1.5605  -1.5193  -1.5107  -1.4289  -1.3966  -1.3351  -1.3234
     2.4311   2.4819   2.5236   2.5563   2.5784   2.5803   2.5821   2.6383
     2.6912   2.7006   2.7257   2.7412   2.7828   2.7903   2.8052   2.8416
     2.8420   2.8599   3.0160   3.0335   3.0566   3.0833   3.1173   3.1267
     3.1424   3.1918   3.1946   3.2119   3.2336   3.2543   3.3123   3.3726
     3.5131   3.5263   3.5407   3.5500   3.5759   3.6015   3.6517   3.6570
     3.6879   3.6974   3.8613   3.8736   3.9123   3.9342   3.9452   3.9531
     3.9844   3.9870   4.0119   4.0479   4.0984   4.1152   4.1279   4.1410
     4.1488   4.1960   4.2021   4.2055   4.2121   4.2316   4.2338   4.2419
     4.2497   4.2530   4.2943   4.3075   4.3418   4.3547   4.3574   4.3832
     4.4246   4.4268   4.4331   4.4445   4.4533   4.4685   4.4967   4.5297
     4.5390   4.5406   4.5415   4.5649   4.5725   4.6685   4.6691   4.6825
     4.6890   4.7125   4.7347   4.7388   4.7505   4.7529   4.7569   4.7632
     4.7918   4.7983   4.8717   4.8748   4.8775   4.9048   4.9329   4.9658
     4.9771   4.9990   5.0321   5.0505   5.0934   5.0956   5.1236   5.1780
     5.1850   5.2026   5.2301   5.2567   5.2665   5.2688   5.2962   5.3008
     5.3746   5.3763   5.4498   5.4664   5.5038   5.5404   5.5452   5.6073
     5.6763   5.6878   5.6924   5.7136   5.7224   5.7493   5.8083   5.8543
     5.8893   5.9407   5.9610   5.9760   5.9892   6.0378   6.0481   6.1436
     6.1516   6.2005   6.2278   6.2536   6.2727   6.2749   6.2796   6.3113
     6.3353   6.3535   6.3590   6.3783   6.4241   6.4331   6.4345   6.4786
     6.4796   6.5013   6.5548   6.5681   6.6151   6.6216   6.6622   6.6653
     6.6910   6.6918   6.6939   6.7219   6.7264   6.7322   6.7477   6.7902
     6.8309   6.8698   6.8875   6.9222   6.9376   6.9422   6.9566   6.9796
     6.9818   7.0797   7.1205   7.2385   7.2884   7.3058   7.4634   7.4688

          k =-0.2500 0.2534 0.2220 ( 82555 PWs)   bands (ev):

   -14.4878 -14.4868 -14.4858 -14.4856 -14.4850 -14.4842 -14.4824 -14.4777
   -14.4752 -14.4728 -14.4708 -14.4634 -14.4610 -14.4597 -14.4590 -14.4569
   -14.4542 -14.4507 -14.4475 -14.4424 -14.4356 -14.4309 -14.4287 -14.4255
   -14.4221 -14.4150 -14.4121 -14.4089 -14.4076 -14.4069 -14.4052 -14.4035
   -14.3998 -14.3983 -14.3980 -14.3973 -14.3967 -14.3962 -14.3951 -14.3940
   -14.3935 -14.3923 -14.3918 -14.3910 -14.3905 -14.3898 -14.3893 -14.3879
   -14.3868 -14.3853 -14.3838 -14.3830 -14.3825 -14.3790 -14.3759 -14.3747
   -14.3738 -14.3726 -14.3714 -14.3711 -14.3694 -14.3678 -14.3655 -14.3651
   -14.3617 -14.3607 -14.3571 -14.3564 -14.3560 -14.3549 -14.3524 -14.3512
   -14.3505 -14.3496 -14.3485 -14.3472 -14.3458 -14.3409 -14.3403 -14.3364
   -10.4781 -10.3429 -10.2012 -10.1570 -10.1064 -10.0293  -9.9445  -9.8712
    -9.6908  -9.6129  -9.6078  -9.5889  -9.5735  -9.4719  -9.4144  -9.4082
    -9.4065  -9.3901  -9.3830  -9.3605  -9.2472  -9.2333  -9.2223  -9.2013
    -9.1968  -9.1783  -9.1655  -9.1337  -9.1214  -9.1191  -9.1112  -9.1105
    -9.0627  -9.0579  -9.0573  -9.0234  -9.0215  -9.0100  -8.9361  -8.9355
    -8.9316  -8.9148  -8.9136  -8.8895  -8.8862  -8.8855  -8.8489  -8.8481
    -8.8422  -8.8396  -8.8076  -8.7960  -8.7949  -8.7839  -8.7826  -8.7716
    -8.7683  -8.7631  -8.7587  -8.7322  -8.7098  -8.7044  -8.6760  -8.6491
    -2.1762  -2.1133  -2.0310  -2.0119  -1.9598  -1.8802  -1.8249  -1.8185
    -1.6236  -1.5603  -1.5195  -1.5108  -1.4290  -1.3968  -1.3349  -1.3233
     2.4310   2.4818   2.5236   2.5563   2.5785   2.5803   2.5822   2.6381
     2.6912   2.7006   2.7260   2.7410   2.7829   2.7904   2.8051   2.8415
     2.8419   2.8600   3.0159   3.0336   3.0567   3.0832   3.1173   3.1270
     3.1429   3.1917   3.1946   3.2120   3.2339   3.2542   3.3123   3.3724
     3.5134   3.5258   3.5411   3.5498   3.5762   3.6014   3.6513   3.6563
     3.6882   3.6973   3.8609   3.8736   3.9122   3.9336   3.9452   3.9533
     3.9846   3.9868   4.0116   4.0478   4.0984   4.1151   4.1288   4.1410
     4.1488   4.1957   4.2028   4.2054   4.2122   4.2317   4.2337   4.2422
     4.2499   4.2527   4.2942   4.3075   4.3414   4.3546   4.3572   4.3829
     4.4248   4.4270   4.4330   4.4446   4.4536   4.4688   4.4965   4.5298
     4.5390   4.5405   4.5412   4.5647   4.5728   4.6686   4.6692   4.6825
     4.6892   4.7124   4.7345   4.7380   4.7506   4.7535   4.7569   4.7636
     4.7919   4.7978   4.8721   4.8754   4.8779   4.9041   4.9323   4.9655
     4.9774   4.9992   5.0322   5.0497   5.0935   5.0955   5.1243   5.1777
     5.1854   5.2025   5.2302   5.2571   5.2664   5.2687   5.2963   5.3007
     5.3751   5.3761   5.4495   5.4665   5.5046   5.5409   5.5441   5.6074
     5.6761   5.6878   5.6931   5.7138   5.7218   5.7488   5.8085   5.8549
     5.8895   5.9407   5.9612   5.9762   5.9881   6.0380   6.0479   6.1437
     6.1517   6.2002   6.2276   6.2534   6.2731   6.2747   6.2801   6.3115
     6.3353   6.3535   6.3583   6.3783   6.4239   6.4334   6.4339   6.4789
     6.4791   6.5013   6.5553   6.5677   6.6154   6.6220   6.6625   6.6651
     6.6909   6.6915   6.6938   6.7221   6.7264   6.7323   6.7478   6.7903
     6.8309   6.8698   6.8876   6.9220   6.9376   6.9421   6.9568   6.9798
     6.9820   7.0797   7.1203   7.2380   7.2886   7.3059   7.4634   7.4686

     highest occupied level (ev):     7.5547

!    total energy              =   -4972.10944701 Ry
     Harris-Foulkes estimate   =   -4972.10944701 Ry
     estimated scf accuracy    <          2.6E-10 Ry

     The total energy is the sum of the following terms:

     one-electron contribution =   -1193.11056993 Ry
     hartree contribution      =    1074.13708630 Ry
     xc contribution           =   -1297.69661226 Ry
     ewald contribution        =   -3555.43935112 Ry

     convergence has been achieved in  23 iterations

     Forces acting on atoms (cartesian axes, Ry/au):

     atom    1 type  1   force =     0.00003045   -0.00002429   -0.01386237
     atom    2 type  1   force =     0.00002327   -0.00015872   -0.01406398
     atom    3 type  1   force =     0.00009351    0.00004631   -0.01380613
     atom    4 type  1   force =    -0.00014045    0.00010802   -0.01396484
     atom    5 type  1   force =     0.00009873    0.00026523   -0.01403042
     atom    6 type  1   force =     0.00008755    0.00012430   -0.01374503
     atom    7 type  1   force =     0.00001004   -0.00012400   -0.01395091
     atom    8 type  1   force =    -0.00000125   -0.00005907   -0.01385751
     atom    9 type  1   force =    -0.00025662   -0.00023303    0.01385987
     atom   10 type  1   force =     0.00015973   -0.00018285    0.01379005
     atom   11 type  1   force =     0.00024491   -0.00013371    0.01422184
     atom   12 type  1   force =     0.00013661    0.00010958    0.01396480
     atom   13 type  1   force =    -0.00001451    0.00004922    0.01386179
     atom   14 type  1   force =    -0.00001243   -0.00000593    0.01385621
     atom   15 type  1   force =     0.00002503   -0.00003905    0.01384220
     atom   16 type  1   force =    -0.00000146   -0.00000796    0.01383200
     atom   17 type  2   force =    -0.00016554   -0.00021268    0.00462024
     atom   18 type  2   force =     0.00003263   -0.00003080    0.00453946
     atom   19 type  2   force =    -0.00001373    0.00014244    0.00454143
     atom   20 type  2   force =     0.00007926    0.00003375    0.00447137
     atom   21 type  2   force =     0.00009968   -0.00014610    0.00472277
     atom   22 type  2   force =     0.00001081   -0.00001940    0.00454019
     atom   23 type  2   force =    -0.00026731   -0.00004222    0.00422909
     atom   24 type  2   force =     0.00008522   -0.00001346    0.00447632
     atom   25 type  2   force =     0.00008421    0.00011218   -0.00461648
     atom   26 type  2   force =    -0.00238745    0.00260578   -0.00266918
     atom   27 type  2   force =     0.00022265   -0.00009983   -0.00442362
     atom   28 type  2   force =    -0.00006443   -0.00014093   -0.00454331
     atom   29 type  2   force =     0.00005064    0.00001712   -0.00457584
     atom   30 type  2   force =    -0.00001805    0.00001518   -0.00455599
     atom   31 type  2   force =     0.00000442   -0.00001214   -0.00454576
     atom   32 type  2   force =    -0.00000771    0.00000167   -0.00451723
     atom   33 type  3   force =    -0.00011229   -0.00116816    0.00023345
     atom   34 type  3   force =    -0.00018118   -0.00125203    0.00020244
     atom   35 type  3   force =    -0.00017246   -0.00137788    0.00000599
     atom   36 type  3   force =    -0.00022995   -0.00131525    0.00016828
     atom   37 type  3   force =    -0.00019532   -0.00133683    0.00009736
     atom   38 type  3   force =    -0.00016964   -0.00127525    0.00017278
     atom   39 type  3   force =    -0.00011915   -0.00120500    0.00023521
     atom   40 type  3   force =    -0.00016225   -0.00126519    0.00019059
     atom   41 type  3   force =    -0.00030878    0.00166546    0.00025493
     atom   42 type  3   force =    -0.00039544    0.00168173    0.00028248
     atom   43 type  3   force =    -0.00037104    0.00200071   -0.00022420
     atom   44 type  3   force =    -0.00034183    0.00168018    0.00021271
     atom   45 type  3   force =    -0.00036078    0.00162129    0.00033735
     atom   46 type  3   force =    -0.00038058    0.00164501    0.00022453
     atom   47 type  3   force =    -0.00028361    0.00179818    0.00016127
     atom   48 type  3   force =    -0.00032927    0.00170637    0.00021550
     atom   49 type  3   force =     0.00013554    0.00124505   -0.00018267
     atom   50 type  3   force =     0.00020386    0.00194006    0.00042117
     atom   51 type  3   force =     0.00010342    0.00121145   -0.00018101
     atom   52 type  3   force =     0.00031721    0.00134784   -0.00021078
     atom   53 type  3   force =     0.00016818    0.00124608   -0.00020162
     atom   54 type  3   force =     0.00018046    0.00125767   -0.00017857
     atom   55 type  3   force =     0.00017349    0.00130016   -0.00014395
     atom   56 type  3   force =     0.00016419    0.00129014   -0.00017264
     atom   57 type  3   force =     0.00039122   -0.00161008   -0.00022380
     atom   58 type  3   force =     0.00036475   -0.00161464   -0.00024009
     atom   59 type  3   force =     0.00018793   -0.00190153   -0.00022327
     atom   60 type  3   force =     0.00034707   -0.00256719   -0.00010086
     atom   61 type  3   force =     0.00033841   -0.00170427   -0.00022048
     atom   62 type  3   force =     0.00033121   -0.00168527   -0.00022844
     atom   63 type  3   force =     0.00032319   -0.00170828   -0.00017366
     atom   64 type  3   force =     0.00034169   -0.00169640   -0.00020548
     atom   65 type  3   force =    -0.00602459    0.00181683    0.00357324
     atom   66 type  3   force =    -0.00881558    0.00539438    0.00547607
     atom   67 type  3   force =    -0.00875428    0.00542201    0.00545983
     atom   68 type  3   force =    -0.00884426    0.00544707    0.00548812
     atom   69 type  3   force =    -0.00874577    0.00538265    0.00545874
     atom   70 type  3   force =    -0.00877576    0.00538054    0.00549470
     atom   71 type  3   force =    -0.00873739    0.00536909    0.00543739
     atom   72 type  3   force =    -0.00876291    0.00538446    0.00547829
     atom   73 type  3   force =     0.00851142   -0.00512111    0.00547743
     atom   74 type  3   force =     0.00784488   -0.00479936    0.00521287
     atom   75 type  3   force =     0.00812315   -0.00481372    0.00550990
     atom   76 type  3   force =     0.00843586   -0.00508305    0.00546624
     atom   77 type  3   force =     0.00840930   -0.00509380    0.00547862
     atom   78 type  3   force =     0.00844646   -0.00509330    0.00549947
     atom   79 type  3   force =     0.00840279   -0.00509351    0.00546399
     atom   80 type  3   force =     0.00842923   -0.00509372    0.00548338
     atom   81 type  3   force =     0.00871637   -0.00536163   -0.00544966
     atom   82 type  3   force =     0.00882579   -0.00542783   -0.00549482
     atom   83 type  3   force =     0.00871476   -0.00536478   -0.00544313
     atom   84 type  3   force =     0.00878571   -0.00540968   -0.00545474
     atom   85 type  3   force =     0.00875407   -0.00534542   -0.00547164
     atom   86 type  3   force =     0.00871189   -0.00531436   -0.00545530
     atom   87 type  3   force =     0.00863690   -0.00536825   -0.00535878
     atom   88 type  3   force =     0.00895942   -0.00538034   -0.00541953
     atom   89 type  3   force =    -0.00844817    0.00513487   -0.00550556
     atom   90 type  3   force =    -0.00845305    0.00513482   -0.00547230
     atom   91 type  3   force =    -0.00841805    0.00508905   -0.00547965
     atom   92 type  3   force =    -0.00840853    0.00508933   -0.00545020
     atom   93 type  3   force =    -0.00845906    0.00550090   -0.00579690
     atom   94 type  3   force =    -0.00844380    0.00510528   -0.00549317
     atom   95 type  3   force =    -0.00835089    0.00550883   -0.00515008
     atom   96 type  3   force =    -0.00845257    0.00510503   -0.00550840

     Total force =     0.087256     Total SCF correction =     0.000065


     Computing stress (Cartesian axis) and pressure

          total   stress  (Ry/bohr**3)                   (kbar)     P=   40.49
   0.00029029   0.00000186   0.00000062         42.70      0.27      0.09
   0.00000186   0.00026623  -0.00000017          0.27     39.16     -0.03
   0.00000062  -0.00000017   0.00026932          0.09     -0.03     39.62


     init_run     :    107.92s CPU    109.99s WALL (       1 calls)
     electrons    :   5116.52s CPU   5210.41s WALL (       1 calls)
     forces       :     34.50s CPU     35.00s WALL (       1 calls)
     stress       :    300.32s CPU    301.37s WALL (       1 calls)

     Called by init_run:
     wfcinit      :     94.45s CPU     96.20s WALL (       1 calls)
     potinit      :      4.48s CPU      4.52s WALL (       1 calls)

     Called by electrons:
     c_bands      :   4418.13s CPU   4491.32s WALL (      23 calls)
     sum_band     :    661.43s CPU    676.31s WALL (      23 calls)
     v_of_rho     :      9.28s CPU      9.52s WALL (      24 calls)
     newd         :     26.43s CPU     32.26s WALL (      24 calls)
     mix_rho      :      2.48s CPU      2.51s WALL (      23 calls)

     Called by c_bands:
     init_us_2    :     25.85s CPU     25.90s WALL (     196 calls)
     cegterg      :   4342.79s CPU   4415.90s WALL (      92 calls)

     Called by sum_band:
     sum_band:bec :      0.20s CPU      0.21s WALL (      92 calls)
     addusdens    :     37.88s CPU     44.24s WALL (      23 calls)

     Called by *egterg:
     h_psi        :   3200.11s CPU   3244.86s WALL (     378 calls)
     s_psi        :    326.42s CPU    326.44s WALL (     378 calls)
     g_psi        :      5.70s CPU      5.70s WALL (     282 calls)
     cdiaghg      :    137.01s CPU    137.08s WALL (     374 calls)

     Called by h_psi:
     h_psi:pot    :   3182.23s CPU   3226.83s WALL (     378 calls)
     h_psi:calbec :    307.76s CPU    308.03s WALL (     378 calls)
     vloc_psi     :   2546.52s CPU   2590.87s WALL (     378 calls)
     add_vuspsi   :    327.95s CPU    327.93s WALL (     378 calls)

     General routines
     calbec       :    435.69s CPU    436.01s WALL (     490 calls)
     fft          :      8.36s CPU      8.84s WALL (     336 calls)
     fftw         :   2586.81s CPU   2639.42s WALL (  221286 calls)

     Parallel routines
     fft_scatt_xy :    448.22s CPU    447.90s WALL (  221622 calls)
     fft_scatt_yz :    486.06s CPU    517.70s WALL (  221622 calls)

     PWSCF        :     1h32m CPU        1h34m WALL


   This run was terminated on:  14:22:51  28Oct2021            

=------------------------------------------------------------------------------=
   JOB DONE.
=------------------------------------------------------------------------------=
Note: The following floating-point exceptions are signalling: IEEE_DIVIDE_BY_ZERO
Note: The following floating-point exceptions are signalling: IEEE_DIVIDE_BY_ZERO
Note: The following floating-point exceptions are signalling: IEEE_DIVIDE_BY_ZERO
Note: The following floating-point exceptions are signalling: IEEE_DIVIDE_BY_ZERO IEEE_UNDERFLOW_FLAG IEEE_DENORMAL
