
     Program PWSCF v.6.2 (svn rev. 13949:13950) starts on 27Oct2021 at 19:46:30 

     This program is part of the open-source Quantum ESPRESSO suite
     for quantum simulation of materials; please cite
         "P. Giannozzi et al., J. Phys.:Condens. Matter 21 395502 (2009);
         "P. Giannozzi et al., J. Phys.:Condens. Matter 29 465901 (2017);
          URL http://www.quantum-espresso.org", 
     in publications or presentations arising from this work. More details at
     http://www.quantum-espresso.org/quote

     Parallel version (MPI), running on     4 processors

     MPI processes distributed on     1 nodes
     R & G space division:  proc/nbgrp/npool/nimage =       4
     Reading input from headeradd_supercell-004.in

     Current dimensions of program PWSCF are:
     Max number of different atomic species (ntypx) = 10
     Max number of k-points (npk) =  40000
     Max angular momentum in pseudopotentials (lmaxx) =  3
     Message from routine iosys:
     minimal I/O required, wf_collect reset to FALSE
               file Bi.pbe-dn-rrkjus_psl.1.0.0.UPF: wavefunction(s)  5D renormalized
               file O.pbe-rrkjus.UPF: wavefunction(s)  2S renormalized

     Subspace diagonalization in iterative solution of the eigenvalue problem:
     a serial algorithm will be used


     Parallelization info
     --------------------
     sticks:   dense  smooth     PW     G-vecs:    dense   smooth      PW
     Min        2104    2104    550               165101   165101   22036
     Max        2105    2105    551               165102   165102   22038
     Sum        8417    8417   2201               660405   660405   88147



     bravais-lattice index     =            0
     lattice parameter (alat)  =      19.6286  a.u.
     unit-cell volume          =    8346.2129 (a.u.)^3
     number of atoms/cell      =           96
     number of atomic types    =            3
     number of electrons       =       704.00
     number of Kohn-Sham states=          352
     kinetic-energy cutoff     =      70.0000  Ry
     charge density cutoff     =     280.0000  Ry
     convergence threshold     =      1.0E-09
     mixing beta               =       0.7000
     number of iterations used =            8  plain     mixing
     Exchange-correlation      =  SLA  PW   PBE  PBE ( 1  4  3  4 0 0)

     celldm(1)=  19.628585  celldm(2)=   0.000000  celldm(3)=   0.000000
     celldm(4)=   0.000000  celldm(5)=   0.000000  celldm(6)=   0.000000

     crystal axes: (cart. coord. in units of alat)
               a(1) = (   1.000000   0.000000   0.000000 )  
               a(2) = (  -0.006620   0.980010   0.000000 )  
               a(3) = (   0.496690   0.490005   1.126138 )  

     reciprocal axes: (cart. coord. in units 2 pi/alat)
               b(1) = (  1.000000  0.006755 -0.443995 )  
               b(2) = (  0.000000  1.020397 -0.443995 )  
               b(3) = (  0.000000 -0.000000  0.887990 )  


     PseudoPot. # 1 for Bi read from file:
     /home/uezono/pseudo/Bi.pbe-dn-rrkjus_psl.1.0.0.UPF
     MD5 check sum: f9abe7488ae443f53c935a63d0032572
     Pseudo is Ultrasoft + core correction, Zval = 15.0
     Generated using "atomic" code by A. Dal Corso  v.6.2.2
     Using radial grid of 1283 points,  6 beta functions with: 
                l(1) =   0
                l(2) =   0
                l(3) =   1
                l(4) =   1
                l(5) =   2
                l(6) =   2
     Q(r) pseudized with 0 coefficients 


     PseudoPot. # 2 for V  read from file:
     /home/uezono/pseudo/V.pbe-n-van.UPF
     MD5 check sum: ff5646be6093ca757d9525862f4bfff1
     Pseudo is Ultrasoft + core correction, Zval =  5.0
     Generated by new atomic code, or converted to UPF format
     Using radial grid of  853 points,  6 beta functions with: 
                l(1) =   0
                l(2) =   0
                l(3) =   1
                l(4) =   1
                l(5) =   2
                l(6) =   2
     Q(r) pseudized with  8 coefficients,  rinner =    1.000   1.000   1.000
                                                       1.000   1.000

     PseudoPot. # 3 for O  read from file:
     /home/uezono/pseudo/O.pbe-rrkjus.UPF
     MD5 check sum: fadcf19ee70a498d3030e2e79cf929a4
     Pseudo is Ultrasoft, Zval =  6.0
     Generated by new atomic code, or converted to UPF format
     Using radial grid of 1269 points,  4 beta functions with: 
                l(1) =   0
                l(2) =   0
                l(3) =   1
                l(4) =   1
     Q(r) pseudized with 0 coefficients 


     atomic species   valence    mass     pseudopotential
        Bi            15.00   208.98040     Bi( 1.00)
        V              5.00    50.94150     V ( 1.00)
        O              6.00    15.99940     O ( 1.00)

     No symmetry found



   Cartesian axes

     site n.     atom                  positions (alat units)
         1           Bi  tau(   1) = (   0.2475177   0.3675039   0.1503395  )
         2           Bi  tau(   2) = (   0.7475177   0.3675039   0.1503395  )
         3           Bi  tau(   3) = (   0.2442079   0.8575091   0.1503395  )
         4           Bi  tau(   4) = (   0.7442079   0.8575091   0.1503395  )
         5           Bi  tau(   5) = (   0.4958628   0.6125065   0.7134087  )
         6           Bi  tau(   6) = (   0.9958628   0.6125065   0.7134087  )
         7           Bi  tau(   7) = (   0.4925531   1.1025117   0.7134087  )
         8           Bi  tau(   8) = (   0.9925531   1.1025117   0.7134087  )
         9           Bi  tau(   9) = (   0.4975177   0.3675039   0.4127297  )
        10           Bi  tau(  10) = (   0.9975177   0.3675039   0.4127297  )
        11           Bi  tau(  11) = (   0.4942079   0.8575091   0.4127297  )
        12           Bi  tau(  12) = (   0.9942079   0.8575091   0.4127297  )
        13           Bi  tau(  13) = (   0.7458628   0.6125065   0.9757990  )
        14           Bi  tau(  14) = (   1.2458628   0.6125065   0.9757990  )
        15           Bi  tau(  15) = (   0.7425531   1.1025117   0.9757990  )
        16           Bi  tau(  16) = (   1.2425531   1.1025117   0.9757990  )
        17           V   tau(  17) = (   0.4995546   0.1228782   0.1472642  )
        18           V   tau(  18) = (   0.9991726   0.1225013   0.1463980  )
        19           V   tau(  19) = (   0.4958628   0.6125065   0.1463980  )
        20           V   tau(  20) = (   0.9958628   0.6125065   0.1463980  )
        21           V   tau(  21) = (   0.7475177   0.3675039   0.7094672  )
        22           V   tau(  22) = (   1.2475177   0.3675039   0.7094672  )
        23           V   tau(  23) = (   0.7442079   0.8575091   0.7094672  )
        24           V   tau(  24) = (   1.2442079   0.8575091   0.7094672  )
        25           V   tau(  25) = (   0.2458628   0.6125065   0.4166712  )
        26           V   tau(  26) = (   0.7458628   0.6125065   0.4166712  )
        27           V   tau(  27) = (   0.2425531   1.1025117   0.4166712  )
        28           V   tau(  28) = (   0.7425531   1.1025117   0.4166712  )
        29           V   tau(  29) = (   0.4942079   0.8575091   0.9797404  )
        30           V   tau(  30) = (   0.9942079   0.8575091   0.9797404  )
        31           V   tau(  31) = (   0.4908982   1.3475143   0.9797404  )
        32           V   tau(  32) = (   0.9908982   1.3475143   0.9797404  )
        33           O   tau(  33) = (   0.5715696   0.2487756   0.2344620  )
        34           O   tau(  34) = (   1.0715696   0.2487756   0.2344620  )
        35           O   tau(  35) = (   0.5682599   0.7387808   0.2344620  )
        36           O   tau(  36) = (   1.0682599   0.7387808   0.2344620  )
        37           O   tau(  37) = (   0.8199148   0.4937782   0.7975312  )
        38           O   tau(  38) = (   1.3199148   0.4937782   0.7975312  )
        39           O   tau(  39) = (   0.8166050   0.9837834   0.7975312  )
        40           O   tau(  40) = (   1.3166050   0.9837834   0.7975312  )
        41           O   tau(  41) = (   0.4234657   0.4862321   0.2344620  )
        42           O   tau(  42) = (   0.9234657   0.4862321   0.2344620  )
        43           O   tau(  43) = (   0.4201560   0.9762373   0.2344620  )
        44           O   tau(  44) = (   0.9201560   0.9762373   0.2344620  )
        45           O   tau(  45) = (   0.6718109   0.7312347   0.7975312  )
        46           O   tau(  46) = (   1.1718109   0.7312347   0.7975312  )
        47           O   tau(  47) = (   0.6685011   1.2212399   0.7975312  )
        48           O   tau(  48) = (   1.1685011   1.2212399   0.7975312  )
        49           O   tau(  49) = (   0.1734657   0.4862321   0.3286072  )
        50           O   tau(  50) = (   0.6734657   0.4862321   0.3286072  )
        51           O   tau(  51) = (   0.1701560   0.9762373   0.3286072  )
        52           O   tau(  52) = (   0.6701560   0.9762373   0.3286072  )
        53           O   tau(  53) = (   0.4218109   0.7312347   0.8916764  )
        54           O   tau(  54) = (   0.9218109   0.7312347   0.8916764  )
        55           O   tau(  55) = (   0.4185011   1.2212399   0.8916764  )
        56           O   tau(  56) = (   0.9185011   1.2212399   0.8916764  )
        57           O   tau(  57) = (   0.3215696   0.2487756   0.3286072  )
        58           O   tau(  58) = (   0.8215696   0.2487756   0.3286072  )
        59           O   tau(  59) = (   0.3182599   0.7387808   0.3286072  )
        60           O   tau(  60) = (   0.8182599   0.7387808   0.3286072  )
        61           O   tau(  61) = (   0.5699148   0.4937782   0.8916764  )
        62           O   tau(  62) = (   1.0699148   0.4937782   0.8916764  )
        63           O   tau(  63) = (   0.5666050   0.9837834   0.8916764  )
        64           O   tau(  64) = (   1.0666050   0.9837834   0.8916764  )
        65           O   tau(  65) = (   0.6257292   0.6766972   0.5059740  )
        66           O   tau(  66) = (   1.1257292   0.6766972   0.5059740  )
        67           O   tau(  67) = (   0.6224195   1.1667024   0.5059740  )
        68           O   tau(  68) = (   1.1224195   1.1667024   0.5059740  )
        69           O   tau(  69) = (   0.8740744   0.9216998   1.0690432  )
        70           O   tau(  70) = (   1.3740744   0.9216998   1.0690432  )
        71           O   tau(  71) = (   0.8707646   1.4117049   1.0690432  )
        72           O   tau(  72) = (   1.3707646   1.4117049   1.0690432  )
        73           O   tau(  73) = (   0.3659964   0.5483158   0.5059740  )
        74           O   tau(  74) = (   0.8659964   0.5483158   0.5059740  )
        75           O   tau(  75) = (   0.3626866   1.0383210   0.5059740  )
        76           O   tau(  76) = (   0.8626866   1.0383210   0.5059740  )
        77           O   tau(  77) = (   0.6143415   0.7933184   1.0690432  )
        78           O   tau(  78) = (   1.1143415   0.7933184   1.0690432  )
        79           O   tau(  79) = (   0.6110318   1.2833236   1.0690432  )
        80           O   tau(  80) = (   1.1110318   1.2833236   1.0690432  )
        81           O   tau(  81) = (   0.1193061   0.0583106   0.0570952  )
        82           O   tau(  82) = (   0.6193061   0.0583106   0.0570952  )
        83           O   tau(  83) = (   0.1159964   0.5483158   0.0570952  )
        84           O   tau(  84) = (   0.6159964   0.5483158   0.0570952  )
        85           O   tau(  85) = (   0.3676513   0.3033132   0.6201644  )
        86           O   tau(  86) = (   0.8676513   0.3033132   0.6201644  )
        87           O   tau(  87) = (   0.3643415   0.7933184   0.6201644  )
        88           O   tau(  88) = (   0.8643415   0.7933184   0.6201644  )
        89           O   tau(  89) = (   0.3790390   0.1866920   0.0570952  )
        90           O   tau(  90) = (   0.8790390   0.1866920   0.0570952  )
        91           O   tau(  91) = (   0.3757292   0.6766972   0.0570952  )
        92           O   tau(  92) = (   0.8757292   0.6766972   0.0570952  )
        93           O   tau(  93) = (   0.6273841   0.4316946   0.6201644  )
        94           O   tau(  94) = (   1.1273841   0.4316946   0.6201644  )
        95           O   tau(  95) = (   0.6240744   0.9216998   0.6201644  )
        96           O   tau(  96) = (   1.1240744   0.9216998   0.6201644  )

     number of k points=     4
                       cart. coord. in units 2pi/alat
        k(    1) = (   0.2500000   0.2567880   0.0000000), wk =   0.5000000
        k(    2) = (   0.2500000   0.2567880  -0.4439951), wk =   0.5000000
        k(    3) = (   0.2500000  -0.2534107   0.2219976), wk =   0.5000000
        k(    4) = (  -0.2500000   0.2534107   0.2219976), wk =   0.5000000

     Dense  grid:   660405 G-vectors     FFT dimensions: ( 108, 108, 144)

     Estimated max dynamical RAM per process >       2.39 GB

     Estimated total dynamical RAM >       9.55 GB

     Initial potential from superposition of free atoms

     starting charge  703.96725, renormalised to  704.00000
     Starting wfc are  544 randomized atomic wfcs

     total cpu time spent up to now is      110.2 secs

     Self-consistent Calculation

     iteration #  1     ecut=    70.00 Ry     beta= 0.70
     Davidson diagonalization with overlap
     ethr =  1.00E-02,  avg # of iterations =  1.0

     total cpu time spent up to now is      270.2 secs

     total energy              =   -4949.30581654 Ry
     Harris-Foulkes estimate   =   -4981.29991356 Ry
     estimated scf accuracy    <      40.94819872 Ry

     iteration #  2     ecut=    70.00 Ry     beta= 0.70
     Davidson diagonalization with overlap
     ethr =  5.82E-03,  avg # of iterations =  4.0

     total cpu time spent up to now is      563.5 secs

     total energy              =   -4901.61113910 Ry
     Harris-Foulkes estimate   =   -5036.20378308 Ry
     estimated scf accuracy    <     571.16486477 Ry

     iteration #  3     ecut=    70.00 Ry     beta= 0.70
     Davidson diagonalization with overlap
     ethr =  5.82E-03,  avg # of iterations =  6.2

     total cpu time spent up to now is      868.5 secs

     total energy              =   -4970.00534506 Ry
     Harris-Foulkes estimate   =   -4977.39646895 Ry
     estimated scf accuracy    <      23.94047237 Ry

     iteration #  4     ecut=    70.00 Ry     beta= 0.70
     Davidson diagonalization with overlap
     ethr =  3.40E-03,  avg # of iterations =  2.0

     total cpu time spent up to now is     1066.5 secs

     total energy              =   -4972.11402798 Ry
     Harris-Foulkes estimate   =   -4972.74866198 Ry
     estimated scf accuracy    <       4.39767344 Ry

     iteration #  5     ecut=    70.00 Ry     beta= 0.70
     Davidson diagonalization with overlap
     ethr =  6.25E-04,  avg # of iterations =  2.0

     total cpu time spent up to now is     1231.5 secs

     total energy              =   -4971.79431759 Ry
     Harris-Foulkes estimate   =   -4972.31826978 Ry
     estimated scf accuracy    <       2.09664392 Ry

     iteration #  6     ecut=    70.00 Ry     beta= 0.70
     Davidson diagonalization with overlap
     ethr =  2.98E-04,  avg # of iterations =  3.0

     total cpu time spent up to now is     1436.6 secs

     total energy              =   -4972.08289390 Ry
     Harris-Foulkes estimate   =   -4972.11878980 Ry
     estimated scf accuracy    <       0.06722888 Ry

     iteration #  7     ecut=    70.00 Ry     beta= 0.70
     Davidson diagonalization with overlap
     ethr =  9.55E-06,  avg # of iterations =  4.0

     total cpu time spent up to now is     1696.3 secs

     total energy              =   -4972.09024677 Ry
     Harris-Foulkes estimate   =   -4972.12948268 Ry
     estimated scf accuracy    <       0.13848694 Ry

     iteration #  8     ecut=    70.00 Ry     beta= 0.70
     Davidson diagonalization with overlap
     ethr =  9.55E-06,  avg # of iterations =  3.0

     total cpu time spent up to now is     1932.5 secs

     total energy              =   -4972.09474362 Ry
     Harris-Foulkes estimate   =   -4972.11871746 Ry
     estimated scf accuracy    <       0.07149823 Ry

     iteration #  9     ecut=    70.00 Ry     beta= 0.70
     Davidson diagonalization with overlap
     ethr =  9.55E-06,  avg # of iterations =  3.0

     total cpu time spent up to now is     2167.3 secs

     total energy              =   -4972.10868911 Ry
     Harris-Foulkes estimate   =   -4972.11342926 Ry
     estimated scf accuracy    <       0.02843446 Ry

     iteration # 10     ecut=    70.00 Ry     beta= 0.70
     Davidson diagonalization with overlap
     ethr =  4.04E-06,  avg # of iterations =  3.0

     total cpu time spent up to now is     2353.2 secs

     total energy              =   -4972.10770504 Ry
     Harris-Foulkes estimate   =   -4972.11122410 Ry
     estimated scf accuracy    <       0.01251951 Ry

     iteration # 11     ecut=    70.00 Ry     beta= 0.70
     Davidson diagonalization with overlap
     ethr =  1.78E-06,  avg # of iterations =  3.0

     total cpu time spent up to now is     2556.3 secs

     total energy              =   -4972.10915668 Ry
     Harris-Foulkes estimate   =   -4972.10930278 Ry
     estimated scf accuracy    <       0.00037549 Ry

     iteration # 12     ecut=    70.00 Ry     beta= 0.70
     Davidson diagonalization with overlap
     ethr =  5.33E-08,  avg # of iterations =  4.0

     total cpu time spent up to now is     2802.1 secs

     total energy              =   -4972.10926334 Ry
     Harris-Foulkes estimate   =   -4972.10932369 Ry
     estimated scf accuracy    <       0.00023344 Ry

     iteration # 13     ecut=    70.00 Ry     beta= 0.70
     Davidson diagonalization with overlap
     ethr =  3.32E-08,  avg # of iterations =  3.0

     total cpu time spent up to now is     3013.1 secs

     total energy              =   -4972.10928178 Ry
     Harris-Foulkes estimate   =   -4972.10929960 Ry
     estimated scf accuracy    <       0.00006200 Ry

     iteration # 14     ecut=    70.00 Ry     beta= 0.70
     Davidson diagonalization with overlap
     ethr =  8.81E-09,  avg # of iterations =  3.0

     total cpu time spent up to now is     3229.4 secs

     total energy              =   -4972.10928840 Ry
     Harris-Foulkes estimate   =   -4972.10929249 Ry
     estimated scf accuracy    <       0.00001116 Ry

     iteration # 15     ecut=    70.00 Ry     beta= 0.70
     Davidson diagonalization with overlap
     ethr =  1.58E-09,  avg # of iterations =  3.0

     total cpu time spent up to now is     3477.6 secs

     total energy              =   -4972.10928874 Ry
     Harris-Foulkes estimate   =   -4972.10929359 Ry
     estimated scf accuracy    <       0.00001822 Ry

     iteration # 16     ecut=    70.00 Ry     beta= 0.70
     Davidson diagonalization with overlap
     ethr =  1.58E-09,  avg # of iterations =  3.0

     total cpu time spent up to now is     3702.9 secs

     total energy              =   -4972.10929092 Ry
     Harris-Foulkes estimate   =   -4972.10929111 Ry
     estimated scf accuracy    <       0.00000037 Ry

     iteration # 17     ecut=    70.00 Ry     beta= 0.70
     Davidson diagonalization with overlap
     ethr =  5.32E-11,  avg # of iterations =  4.0

     total cpu time spent up to now is     3966.4 secs

     total energy              =   -4972.10929096 Ry
     Harris-Foulkes estimate   =   -4972.10929120 Ry
     estimated scf accuracy    <       0.00000100 Ry

     iteration # 18     ecut=    70.00 Ry     beta= 0.70
     Davidson diagonalization with overlap
     ethr =  5.32E-11,  avg # of iterations =  3.0

     total cpu time spent up to now is     4208.0 secs

     total energy              =   -4972.10929105 Ry
     Harris-Foulkes estimate   =   -4972.10929112 Ry
     estimated scf accuracy    <       0.00000023 Ry

     iteration # 19     ecut=    70.00 Ry     beta= 0.70
     Davidson diagonalization with overlap
     ethr =  3.26E-11,  avg # of iterations =  3.0

     total cpu time spent up to now is     4417.9 secs

     total energy              =   -4972.10929108 Ry
     Harris-Foulkes estimate   =   -4972.10929109 Ry
     estimated scf accuracy    <       0.00000002 Ry

     iteration # 20     ecut=    70.00 Ry     beta= 0.70
     Davidson diagonalization with overlap
     ethr =  2.34E-12,  avg # of iterations =  3.0

     total cpu time spent up to now is     4658.0 secs

     total energy              =   -4972.10929109 Ry
     Harris-Foulkes estimate   =   -4972.10929109 Ry
     estimated scf accuracy    <       0.00000001 Ry

     iteration # 21     ecut=    70.00 Ry     beta= 0.70
     Davidson diagonalization with overlap
     ethr =  1.49E-12,  avg # of iterations =  3.0

     total cpu time spent up to now is     4879.1 secs

     total energy              =   -4972.10929109 Ry
     Harris-Foulkes estimate   =   -4972.10929109 Ry
     estimated scf accuracy    <          2.2E-09 Ry

     iteration # 22     ecut=    70.00 Ry     beta= 0.70
     Davidson diagonalization with overlap
     ethr =  3.10E-13,  avg # of iterations =  3.0

     total cpu time spent up to now is     5111.3 secs

     total energy              =   -4972.10929109 Ry
     Harris-Foulkes estimate   =   -4972.10929109 Ry
     estimated scf accuracy    <          1.1E-09 Ry

     iteration # 23     ecut=    70.00 Ry     beta= 0.70
     Davidson diagonalization with overlap
     ethr =  1.60E-13,  avg # of iterations =  3.0

     total cpu time spent up to now is     5329.2 secs

     End of self-consistent calculation

          k = 0.2500 0.2568 0.0000 ( 82568 PWs)   bands (ev):

   -14.4923 -14.4874 -14.4859 -14.4850 -14.4841 -14.4826 -14.4822 -14.4812
   -14.4784 -14.4705 -14.4681 -14.4669 -14.4647 -14.4637 -14.4591 -14.4571
   -14.4526 -14.4507 -14.4483 -14.4367 -14.4351 -14.4317 -14.4297 -14.4252
   -14.4240 -14.4143 -14.4115 -14.4093 -14.4058 -14.4047 -14.4039 -14.4039
   -14.4018 -14.4011 -14.3991 -14.3980 -14.3977 -14.3972 -14.3958 -14.3951
   -14.3947 -14.3929 -14.3921 -14.3920 -14.3910 -14.3903 -14.3897 -14.3885
   -14.3879 -14.3857 -14.3846 -14.3830 -14.3821 -14.3807 -14.3803 -14.3797
   -14.3784 -14.3749 -14.3731 -14.3699 -14.3694 -14.3667 -14.3646 -14.3625
   -14.3611 -14.3600 -14.3588 -14.3578 -14.3561 -14.3544 -14.3520 -14.3513
   -14.3501 -14.3490 -14.3477 -14.3461 -14.3456 -14.3426 -14.3404 -14.3363
   -10.4969 -10.2980 -10.1700 -10.1648 -10.1240 -10.1189  -9.9309  -9.8070
    -9.6762  -9.6085  -9.6034  -9.6015  -9.5984  -9.5466  -9.4714  -9.3953
    -9.3609  -9.3224  -9.3182  -9.3137  -9.3005  -9.2801  -9.2772  -9.2537
    -9.2437  -9.1727  -9.1505  -9.1177  -9.1128  -9.0853  -9.0828  -9.0665
    -9.0627  -9.0429  -9.0411  -9.0373  -8.9752  -8.9715  -8.9521  -8.9441
    -8.9383  -8.9332  -8.9230  -8.8998  -8.8946  -8.8904  -8.8871  -8.8639
    -8.8258  -8.8248  -8.8224  -8.8212  -8.8188  -8.8048  -8.7848  -8.7810
    -8.7730  -8.7532  -8.7131  -8.7054  -8.7003  -8.6873  -8.6813  -8.6569
    -2.2091  -2.0758  -2.0726  -1.9659  -1.9038  -1.9006  -1.8937  -1.7952
    -1.5986  -1.5543  -1.5510  -1.5043  -1.4733  -1.3606  -1.3573  -1.3056
     2.4200   2.4641   2.4955   2.5000   2.5536   2.5549   2.6749   2.7343
     2.7360   2.7392   2.7491   2.7520   2.7637   2.7705   2.7754   2.8344
     2.8361   2.9403   2.9531   2.9752   2.9763   3.0045   3.1142   3.1787
     3.1819   3.2219   3.2498   3.2536   3.2804   3.3616   3.3863   3.3871
     3.4155   3.4211   3.4230   3.5342   3.5359   3.6276   3.6438   3.7099
     3.7126   3.7674   3.7772   3.7906   3.8963   3.8977   3.8999   3.9708
     3.9953   4.0194   4.0268   4.0410   4.0426   4.0432   4.0468   4.1460
     4.1870   4.2091   4.2105   4.2342   4.2383   4.2408   4.2450   4.2675
     4.2841   4.2874   4.2995   4.3513   4.3649   4.3691   4.3719   4.3762
     4.3818   4.3842   4.4049   4.4090   4.4411   4.4860   4.4923   4.4938
     4.5353   4.5381   4.6129   4.6338   4.6350   4.6440   4.6468   4.6721
     4.6744   4.6807   4.6967   4.7020   4.7152   4.7225   4.7667   4.7695
     4.7723   4.8414   4.8609   4.8628   4.9191   4.9349   5.0018   5.0074
     5.0081   5.0554   5.0575   5.0922   5.0942   5.1130   5.1226   5.1239
     5.1453   5.1463   5.2150   5.2737   5.2861   5.2876   5.2894   5.3613
     5.3689   5.3695   5.3928   5.3992   5.4238   5.5204   5.5215   5.5465
     5.6505   5.7458   5.7476   5.7529   5.8372   5.8540   5.8549   5.8700
     5.8916   5.9896   5.9930   5.9940   6.0044   6.0645   6.0666   6.1332
     6.1364   6.1561   6.2484   6.2709   6.2723   6.2743   6.2756   6.2764
     6.2847   6.2871   6.2967   6.4095   6.4124   6.4140   6.4201   6.4246
     6.4616   6.4651   6.4734   6.4749   6.4936   6.5827   6.5890   6.5931
     6.6964   6.6993   6.7252   6.7909   6.7929   6.7949   6.8138   6.8659
     6.8746   6.8786   6.8794   6.9330   6.9408   6.9463   6.9500   6.9898
     6.9921   7.0643   7.1484   7.2884   7.2907   7.3683   7.3715   7.4771

          k = 0.2500 0.2568-0.4440 ( 82488 PWs)   bands (ev):

   -14.4924 -14.4873 -14.4860 -14.4849 -14.4846 -14.4833 -14.4825 -14.4784
   -14.4766 -14.4738 -14.4721 -14.4611 -14.4604 -14.4575 -14.4565 -14.4556
   -14.4536 -14.4528 -14.4513 -14.4493 -14.4363 -14.4326 -14.4308 -14.4232
   -14.4216 -14.4172 -14.4151 -14.4146 -14.4080 -14.4078 -14.4042 -14.4026
   -14.4016 -14.4004 -14.3998 -14.3981 -14.3978 -14.3966 -14.3962 -14.3955
   -14.3950 -14.3921 -14.3917 -14.3908 -14.3901 -14.3895 -14.3883 -14.3859
   -14.3848 -14.3843 -14.3833 -14.3826 -14.3800 -14.3772 -14.3746 -14.3738
   -14.3724 -14.3720 -14.3708 -14.3704 -14.3696 -14.3696 -14.3684 -14.3678
   -14.3629 -14.3622 -14.3611 -14.3581 -14.3548 -14.3538 -14.3528 -14.3519
   -14.3507 -14.3495 -14.3489 -14.3480 -14.3474 -14.3425 -14.3403 -14.3358
   -10.4158 -10.4109 -10.2253 -10.1957 -10.1001 -10.0207  -9.8774  -9.8728
    -9.6776  -9.6012  -9.5602  -9.5177  -9.5117  -9.5073  -9.4921  -9.4874
    -9.4406  -9.4384  -9.3961  -9.3915  -9.2311  -9.2273  -9.2240  -9.1971
    -9.1940  -9.1706  -9.1667  -9.1506  -9.1407  -9.1388  -9.1242  -9.0875
    -9.0681  -9.0650  -9.0497  -8.9817  -8.9752  -8.9655  -8.9122  -8.9072
    -8.8996  -8.8982  -8.8948  -8.8904  -8.8871  -8.8815  -8.8766  -8.8724
    -8.8514  -8.8390  -8.8314  -8.8285  -8.8160  -8.8133  -8.7996  -8.7866
    -8.7835  -8.7628  -8.7182  -8.6962  -8.6915  -8.6861  -8.6831  -8.6766
    -2.1229  -2.1009  -2.0978  -2.0229  -1.9822  -1.8532  -1.8500  -1.7734
    -1.6581  -1.5459  -1.5427  -1.4961  -1.3907  -1.3792  -1.3758  -1.3306
     2.4944   2.4999   2.5651   2.5669   2.5707   2.5719   2.6229   2.6598
     2.6634   2.7250   2.7262   2.7482   2.7527   2.7768   2.8676   2.8690
     2.8702   2.8732   2.8775   2.8816   2.9138   3.0337   3.0934   3.1337
     3.1400   3.1427   3.2560   3.2589   3.2715   3.2850   3.2983   3.2989
     3.3725   3.4351   3.4604   3.4614   3.6027   3.6041   3.6706   3.7712
     3.7979   3.8282   3.9029   3.9046   3.9865   3.9873   4.0148   4.0357
     4.0477   4.0667   4.0835   4.0950   4.1156   4.1182   4.1502   4.1690
     4.1713   4.2021   4.2217   4.2226   4.2242   4.2376   4.2650   4.2848
     4.2860   4.2968   4.2985   4.3001   4.3205   4.3380   4.3400   4.3415
     4.4069   4.4302   4.4318   4.4337   4.4726   4.4737   4.4752   4.4777
     4.4814   4.4833   4.5267   4.5327   4.5507   4.5531   4.6021   4.6242
     4.6257   4.6408   4.6854   4.6867   4.7299   4.7936   4.8223   4.8239
     4.8318   4.8334   4.8644   4.8773   4.8794   4.8857   4.8876   4.8971
     4.8984   4.9908   5.0360   5.0393   5.0929   5.1065   5.1160   5.1528
     5.1652   5.1655   5.2044   5.2256   5.2451   5.2464   5.2557   5.2760
     5.3082   5.3353   5.3379   5.4462   5.4707   5.5705   5.5713   5.6568
     5.7134   5.7960   5.7996   5.8013   5.8126   5.8861   5.8875   5.9162
     5.9800   6.0126   6.0303   6.0318   6.0564   6.0666   6.0677   6.0689
     6.1155   6.1608   6.1702   6.1712   6.1886   6.2019   6.2035   6.2748
     6.3431   6.3556   6.3574   6.4014   6.4042   6.4085   6.4913   6.4925
     6.5020   6.5143   6.5229   6.5270   6.5762   6.5884   6.6164   6.6362
     6.6382   6.6589   6.6849   6.6867   6.7866   6.7906   6.7996   6.8032
     6.8261   6.8796   6.8816   6.9333   6.9361   6.9544   6.9566   6.9722
     7.0235   7.0312   7.0896   7.1809   7.3423   7.3452   7.4406   7.5549

          k = 0.2500-0.2534 0.2220 ( 82555 PWs)   bands (ev):

   -14.4925 -14.4878 -14.4857 -14.4853 -14.4845 -14.4835 -14.4831 -14.4778
   -14.4762 -14.4732 -14.4707 -14.4636 -14.4626 -14.4601 -14.4598 -14.4574
   -14.4540 -14.4508 -14.4477 -14.4428 -14.4366 -14.4315 -14.4287 -14.4256
   -14.4230 -14.4162 -14.4120 -14.4108 -14.4079 -14.4074 -14.4061 -14.4037
   -14.4021 -14.4001 -14.3981 -14.3976 -14.3971 -14.3968 -14.3961 -14.3948
   -14.3942 -14.3922 -14.3914 -14.3910 -14.3902 -14.3896 -14.3893 -14.3886
   -14.3872 -14.3855 -14.3839 -14.3836 -14.3828 -14.3798 -14.3764 -14.3753
   -14.3741 -14.3732 -14.3718 -14.3716 -14.3693 -14.3682 -14.3665 -14.3649
   -14.3621 -14.3614 -14.3590 -14.3572 -14.3556 -14.3552 -14.3521 -14.3514
   -14.3504 -14.3498 -14.3480 -14.3475 -14.3465 -14.3419 -14.3398 -14.3366
   -10.4791 -10.3442 -10.2022 -10.1578 -10.1075 -10.0306  -9.9457  -9.8726
    -9.6917  -9.6121  -9.6085  -9.5904  -9.5740  -9.4726  -9.4137  -9.4094
    -9.4053  -9.3905  -9.3819  -9.3609  -9.2481  -9.2327  -9.2222  -9.2019
    -9.1967  -9.1797  -9.1669  -9.1344  -9.1229  -9.1200  -9.1115  -9.1101
    -9.0634  -9.0576  -9.0562  -9.0232  -9.0204  -9.0092  -8.9364  -8.9357
    -8.9306  -8.9156  -8.9124  -8.8905  -8.8863  -8.8849  -8.8515  -8.8471
    -8.8422  -8.8389  -8.8070  -8.7954  -8.7942  -8.7831  -8.7816  -8.7695
    -8.7679  -8.7621  -8.7569  -8.7304  -8.7097  -8.7025  -8.6746  -8.6474
    -2.1765  -2.1136  -2.0314  -2.0123  -1.9603  -1.8807  -1.8256  -1.8185
    -1.6243  -1.5609  -1.5201  -1.5111  -1.4295  -1.3972  -1.3354  -1.3239
     2.4308   2.4814   2.5235   2.5554   2.5774   2.5786   2.5818   2.6388
     2.6911   2.6989   2.7249   2.7417   2.7824   2.7899   2.8049   2.8396
     2.8424   2.8603   3.0162   3.0324   3.0566   3.0827   3.1175   3.1263
     3.1430   3.1925   3.1943   3.2128   3.2336   3.2544   3.3120   3.3713
     3.5131   3.5263   3.5411   3.5494   3.5760   3.6021   3.6521   3.6557
     3.6883   3.6976   3.8604   3.8745   3.9120   3.9334   3.9455   3.9543
     3.9849   3.9869   4.0128   4.0472   4.0986   4.1154   4.1288   4.1407
     4.1482   4.1950   4.2030   4.2047   4.2120   4.2318   4.2341   4.2421
     4.2500   4.2521   4.2932   4.3080   4.3415   4.3538   4.3580   4.3819
     4.4231   4.4260   4.4333   4.4449   4.4529   4.4687   4.4972   4.5303
     4.5385   4.5404   4.5411   4.5646   4.5735   4.6682   4.6696   4.6822
     4.6893   4.7123   4.7344   4.7388   4.7506   4.7534   4.7575   4.7649
     4.7917   4.7977   4.8716   4.8748   4.8784   4.9046   4.9337   4.9654
     4.9782   4.9985   5.0318   5.0506   5.0934   5.0961   5.1242   5.1779
     5.1847   5.2027   5.2303   5.2575   5.2661   5.2695   5.2961   5.3006
     5.3737   5.3758   5.4495   5.4661   5.5049   5.5395   5.5445   5.6081
     5.6760   5.6880   5.6935   5.7139   5.7223   5.7491   5.8083   5.8553
     5.8897   5.9414   5.9616   5.9764   5.9891   6.0383   6.0485   6.1441
     6.1520   6.1995   6.2273   6.2537   6.2738   6.2750   6.2803   6.3112
     6.3356   6.3540   6.3589   6.3789   6.4235   6.4327   6.4348   6.4794
     6.4795   6.5005   6.5540   6.5686   6.6150   6.6219   6.6622   6.6660
     6.6900   6.6914   6.6944   6.7221   6.7263   6.7327   6.7476   6.7910
     6.8322   6.8693   6.8885   6.9226   6.9371   6.9416   6.9565   6.9792
     6.9828   7.0795   7.1196   7.2385   7.2882   7.3056   7.4628   7.4690

          k =-0.2500 0.2534 0.2220 ( 82555 PWs)   bands (ev):

   -14.4924 -14.4879 -14.4855 -14.4853 -14.4848 -14.4834 -14.4829 -14.4778
   -14.4761 -14.4736 -14.4704 -14.4638 -14.4627 -14.4602 -14.4593 -14.4569
   -14.4546 -14.4507 -14.4480 -14.4426 -14.4365 -14.4319 -14.4282 -14.4258
   -14.4231 -14.4158 -14.4123 -14.4106 -14.4079 -14.4076 -14.4057 -14.4040
   -14.4015 -14.4003 -14.3986 -14.3975 -14.3968 -14.3967 -14.3964 -14.3948
   -14.3940 -14.3921 -14.3914 -14.3911 -14.3903 -14.3898 -14.3892 -14.3887
   -14.3873 -14.3848 -14.3845 -14.3837 -14.3827 -14.3796 -14.3774 -14.3748
   -14.3746 -14.3733 -14.3714 -14.3708 -14.3699 -14.3684 -14.3659 -14.3653
   -14.3626 -14.3608 -14.3589 -14.3568 -14.3562 -14.3546 -14.3532 -14.3509
   -14.3503 -14.3495 -14.3487 -14.3473 -14.3464 -14.3420 -14.3396 -14.3367
   -10.4791 -10.3442 -10.2021 -10.1579 -10.1076 -10.0304  -9.9457  -9.8725
    -9.6922  -9.6120  -9.6082  -9.5902  -9.5741  -9.4726  -9.4133  -9.4094
    -9.4055  -9.3907  -9.3822  -9.3606  -9.2485  -9.2329  -9.2219  -9.2022
    -9.1971  -9.1793  -9.1658  -9.1345  -9.1235  -9.1199  -9.1122  -9.1100
    -9.0631  -9.0576  -9.0550  -9.0230  -9.0203  -9.0094  -8.9381  -8.9351
    -8.9306  -8.9154  -8.9131  -8.8896  -8.8863  -8.8852  -8.8512  -8.8472
    -8.8424  -8.8383  -8.8071  -8.7954  -8.7942  -8.7827  -8.7821  -8.7703
    -8.7674  -8.7621  -8.7564  -8.7306  -8.7098  -8.7024  -8.6747  -8.6473
    -2.1766  -2.1136  -2.0316  -2.0122  -1.9604  -1.8807  -1.8253  -1.8188
    -1.6244  -1.5609  -1.5199  -1.5113  -1.4296  -1.3971  -1.3356  -1.3237
     2.4309   2.4811   2.5227   2.5560   2.5784   2.5791   2.5819   2.6378
     2.6908   2.6992   2.7254   2.7408   2.7825   2.7897   2.8055   2.8391
     2.8424   2.8597   3.0160   3.0333   3.0569   3.0829   3.1172   3.1267
     3.1426   3.1921   3.1941   3.2133   3.2337   3.2539   3.3119   3.3720
     3.5129   3.5268   3.5405   3.5496   3.5761   3.6021   3.6518   3.6559
     3.6882   3.6979   3.8609   3.8740   3.9132   3.9342   3.9446   3.9542
     3.9838   3.9865   4.0124   4.0473   4.0985   4.1145   4.1280   4.1407
     4.1494   4.1958   4.2025   4.2050   4.2114   4.2316   4.2337   4.2415
     4.2488   4.2532   4.2942   4.3082   4.3427   4.3543   4.3577   4.3833
     4.4243   4.4266   4.4335   4.4451   4.4531   4.4679   4.4965   4.5305
     4.5378   4.5402   4.5407   4.5639   4.5725   4.6679   4.6695   4.6823
     4.6887   4.7130   4.7343   4.7381   4.7509   4.7532   4.7574   4.7644
     4.7917   4.7985   4.8716   4.8754   4.8785   4.9041   4.9336   4.9656
     4.9779   4.9987   5.0321   5.0494   5.0938   5.0960   5.1246   5.1773
     5.1845   5.2027   5.2304   5.2574   5.2668   5.2698   5.2964   5.3009
     5.3747   5.3763   5.4495   5.4664   5.5047   5.5405   5.5449   5.6080
     5.6747   5.6884   5.6928   5.7138   5.7221   5.7487   5.8086   5.8543
     5.8904   5.9408   5.9615   5.9761   5.9890   6.0377   6.0486   6.1437
     6.1520   6.2008   6.2267   6.2537   6.2732   6.2745   6.2799   6.3122
     6.3353   6.3541   6.3588   6.3792   6.4240   6.4322   6.4353   6.4785
     6.4804   6.5010   6.5551   6.5675   6.6157   6.6227   6.6630   6.6657
     6.6891   6.6918   6.6944   6.7216   6.7272   6.7326   6.7470   6.7906
     6.8324   6.8691   6.8876   6.9220   6.9370   6.9418   6.9569   6.9797
     6.9820   7.0799   7.1199   7.2382   7.2886   7.3054   7.4632   7.4685

     highest occupied level (ev):     7.5549

!    total energy              =   -4972.10929109 Ry
     Harris-Foulkes estimate   =   -4972.10929109 Ry
     estimated scf accuracy    <          2.4E-10 Ry

     The total energy is the sum of the following terms:

     one-electron contribution =   -1193.11412123 Ry
     hartree contribution      =    1074.13601473 Ry
     xc contribution           =   -1297.69749662 Ry
     ewald contribution        =   -3555.43368796 Ry

     convergence has been achieved in  23 iterations

     Forces acting on atoms (cartesian axes, Ry/au):

     atom    1 type  1   force =     0.00032501   -0.00064383   -0.01454729
     atom    2 type  1   force =     0.00118909    0.00078971   -0.01445932
     atom    3 type  1   force =     0.00028949    0.00033993   -0.01416850
     atom    4 type  1   force =    -0.00023773    0.00024953   -0.01439061
     atom    5 type  1   force =     0.00001265    0.00002736   -0.01373722
     atom    6 type  1   force =    -0.00000132    0.00000129   -0.01365408
     atom    7 type  1   force =    -0.00003330   -0.00003467   -0.01369044
     atom    8 type  1   force =     0.00000628    0.00001634   -0.01363494
     atom    9 type  1   force =    -0.00042568    0.00096123    0.01506574
     atom   10 type  1   force =     0.00015208    0.00007628    0.01388459
     atom   11 type  1   force =    -0.00025609   -0.00012825    0.01386191
     atom   12 type  1   force =     0.00004782   -0.00006140    0.01382976
     atom   13 type  1   force =     0.00052495    0.00001558    0.01454541
     atom   14 type  1   force =    -0.00030094   -0.00009013    0.01417694
     atom   15 type  1   force =     0.00009717    0.00001532    0.01387698
     atom   16 type  1   force =    -0.00007374    0.00007059    0.01385195
     atom   17 type  2   force =    -0.00652727   -0.00588289   -0.00888905
     atom   18 type  2   force =     0.00019025   -0.00006139    0.00442257
     atom   19 type  2   force =    -0.00002777    0.00022846    0.00441603
     atom   20 type  2   force =     0.00013954    0.00012896    0.00434466
     atom   21 type  2   force =     0.00011035    0.00004463    0.00471428
     atom   22 type  2   force =    -0.00009058    0.00006849    0.00467403
     atom   23 type  2   force =     0.00000186   -0.00007269    0.00465388
     atom   24 type  2   force =    -0.00003754   -0.00004120    0.00461152
     atom   25 type  2   force =    -0.00017058    0.00000554   -0.00461631
     atom   26 type  2   force =     0.00008613    0.00019534   -0.00441954
     atom   27 type  2   force =    -0.00016649   -0.00024519   -0.00440470
     atom   28 type  2   force =     0.00062037   -0.00018673   -0.00403199
     atom   29 type  2   force =     0.00016816   -0.00010443   -0.00454143
     atom   30 type  2   force =    -0.00014736   -0.00024742   -0.00431148
     atom   31 type  2   force =     0.00002076    0.00007951   -0.00452616
     atom   32 type  2   force =    -0.00027502    0.00045161   -0.00406880
     atom   33 type  3   force =     0.00244874    0.00320518    0.00406052
     atom   34 type  3   force =    -0.00021215   -0.00129739    0.00026040
     atom   35 type  3   force =    -0.00021001   -0.00134475    0.00020063
     atom   36 type  3   force =    -0.00018997   -0.00129233    0.00019287
     atom   37 type  3   force =    -0.00020196   -0.00138130    0.00001443
     atom   38 type  3   force =    -0.00017348   -0.00134299    0.00007775
     atom   39 type  3   force =    -0.00017665   -0.00127711    0.00012820
     atom   40 type  3   force =    -0.00014208   -0.00126773    0.00014065
     atom   41 type  3   force =    -0.00021165    0.00146596    0.00036187
     atom   42 type  3   force =    -0.00061308    0.00142358    0.00017962
     atom   43 type  3   force =     0.00004732    0.00170774    0.00158826
     atom   44 type  3   force =    -0.00036729    0.00169419    0.00029308
     atom   45 type  3   force =    -0.00035006    0.00178813    0.00008385
     atom   46 type  3   force =    -0.00031314    0.00175101    0.00014219
     atom   47 type  3   force =    -0.00034926    0.00170989    0.00015411
     atom   48 type  3   force =    -0.00030888    0.00170873    0.00015413
     atom   49 type  3   force =     0.00012554    0.00141181    0.00006973
     atom   50 type  3   force =     0.00003191    0.00101022   -0.00028907
     atom   51 type  3   force =     0.00020025    0.00135150   -0.00009177
     atom   52 type  3   force =    -0.00003275    0.00162933   -0.00029212
     atom   53 type  3   force =     0.00021514    0.00132119   -0.00019088
     atom   54 type  3   force =     0.00018810    0.00130507   -0.00029327
     atom   55 type  3   force =     0.00015725    0.00123164   -0.00022292
     atom   56 type  3   force =     0.00008231    0.00108691   -0.00031670
     atom   57 type  3   force =     0.00075242   -0.00162511   -0.00025588
     atom   58 type  3   force =     0.00001746   -0.00177163   -0.00032287
     atom   59 type  3   force =     0.00035903   -0.00172093   -0.00017697
     atom   60 type  3   force =     0.00032528   -0.00177496   -0.00008563
     atom   61 type  3   force =     0.00023614   -0.00177551   -0.00025902
     atom   62 type  3   force =     0.00039777   -0.00161151   -0.00036840
     atom   63 type  3   force =     0.00031589   -0.00168929   -0.00024220
     atom   64 type  3   force =     0.00038014   -0.00161380   -0.00029422
     atom   65 type  3   force =    -0.00866752    0.00531282    0.00541982
     atom   66 type  3   force =    -0.00871361    0.00538671    0.00542116
     atom   67 type  3   force =    -0.00881528    0.00543325    0.00525499
     atom   68 type  3   force =    -0.00868307    0.00536928    0.00539077
     atom   69 type  3   force =    -0.00874779    0.00552238    0.00538748
     atom   70 type  3   force =    -0.00891522    0.00537936    0.00567906
     atom   71 type  3   force =    -0.00871184    0.00501000    0.00506323
     atom   72 type  3   force =    -0.00872157    0.00535585    0.00546494
     atom   73 type  3   force =     0.00862800   -0.00530300    0.00546614
     atom   74 type  3   force =     0.00837334   -0.00509429    0.00541981
     atom   75 type  3   force =     0.00838573   -0.00504854    0.00545698
     atom   76 type  3   force =     0.00820975   -0.00499561    0.00533137
     atom   77 type  3   force =     0.00828049   -0.00501395    0.00541401
     atom   78 type  3   force =     0.00855855   -0.00494372    0.00551284
     atom   79 type  3   force =     0.00841448   -0.00509703    0.00549937
     atom   80 type  3   force =     0.00855971   -0.00526290    0.00552481
     atom   81 type  3   force =     0.00857252   -0.00537626   -0.00537625
     atom   82 type  3   force =     0.00679730   -0.00373037   -0.00222687
     atom   83 type  3   force =     0.00857117   -0.00523986   -0.00543765
     atom   84 type  3   force =     0.00882299   -0.00546231   -0.00541058
     atom   85 type  3   force =     0.00887942   -0.00538667   -0.00562080
     atom   86 type  3   force =     0.00874227   -0.00539715   -0.00551826
     atom   87 type  3   force =     0.00876281   -0.00539032   -0.00549356
     atom   88 type  3   force =     0.00875241   -0.00536541   -0.00550858
     atom   89 type  3   force =    -0.00400228    0.00364673   -0.00090146
     atom   90 type  3   force =    -0.00845693    0.00523108   -0.00542914
     atom   91 type  3   force =    -0.00833981    0.00502040   -0.00537719
     atom   92 type  3   force =    -0.00835788    0.00504154   -0.00545609
     atom   93 type  3   force =    -0.00854427    0.00509321   -0.00563657
     atom   94 type  3   force =    -0.00840657    0.00507151   -0.00551360
     atom   95 type  3   force =    -0.00843908    0.00514721   -0.00552642
     atom   96 type  3   force =    -0.00842698    0.00510481   -0.00551254

     Total force =     0.088123     Total SCF correction =     0.000045


     Computing stress (Cartesian axis) and pressure

          total   stress  (Ry/bohr**3)                   (kbar)     P=   40.53
   0.00028930   0.00000384  -0.00000002         42.56      0.57     -0.00
   0.00000384   0.00026783   0.00000115          0.57     39.40      0.17
  -0.00000002   0.00000115   0.00026940         -0.00      0.17     39.63


     init_run     :    107.92s CPU    109.86s WALL (       1 calls)
     electrons    :   5119.19s CPU   5219.04s WALL (       1 calls)
     forces       :     34.64s CPU     35.09s WALL (       1 calls)
     stress       :    299.06s CPU    300.12s WALL (       1 calls)

     Called by init_run:
     wfcinit      :     94.46s CPU     96.09s WALL (       1 calls)
     potinit      :      4.48s CPU      4.51s WALL (       1 calls)

     Called by electrons:
     c_bands      :   4419.68s CPU   4499.14s WALL (      23 calls)
     sum_band     :    662.52s CPU    677.06s WALL (      23 calls)
     v_of_rho     :      9.29s CPU      9.53s WALL (      24 calls)
     newd         :     26.44s CPU     32.27s WALL (      24 calls)
     mix_rho      :      2.48s CPU      2.51s WALL (      23 calls)

     Called by c_bands:
     init_us_2    :     25.95s CPU     26.02s WALL (     196 calls)
     cegterg      :   4344.35s CPU   4423.74s WALL (      92 calls)

     Called by sum_band:
     sum_band:bec :      0.21s CPU      0.21s WALL (      92 calls)
     addusdens    :     37.95s CPU     44.26s WALL (      23 calls)

     Called by *egterg:
     h_psi        :   3197.88s CPU   3248.78s WALL (     385 calls)
     s_psi        :    327.28s CPU    327.26s WALL (     385 calls)
     g_psi        :      5.74s CPU      5.73s WALL (     289 calls)
     cdiaghg      :    138.19s CPU    138.26s WALL (     381 calls)

     Called by h_psi:
     h_psi:pot    :   3179.91s CPU   3230.66s WALL (     385 calls)
     h_psi:calbec :    307.96s CPU    308.25s WALL (     385 calls)
     vloc_psi     :   2542.92s CPU   2593.39s WALL (     385 calls)
     add_vuspsi   :    329.02s CPU    329.02s WALL (     385 calls)

     General routines
     calbec       :    438.23s CPU    438.69s WALL (     497 calls)
     fft          :      8.84s CPU      9.26s WALL (     336 calls)
     fftw         :   2586.14s CPU   2644.06s WALL (  221732 calls)

     Parallel routines
     fft_scatt_xy :    448.04s CPU    449.01s WALL (  222068 calls)
     fft_scatt_yz :    501.04s CPU    533.28s WALL (  222068 calls)

     PWSCF        :     1h32m CPU        1h34m WALL


   This run was terminated on:  21:20:54  27Oct2021            

=------------------------------------------------------------------------------=
   JOB DONE.
=------------------------------------------------------------------------------=
Note: The following floating-point exceptions are signalling: IEEE_DIVIDE_BY_ZERO IEEE_UNDERFLOW_FLAG IEEE_DENORMAL
Note: The following floating-point exceptions are signalling: IEEE_DIVIDE_BY_ZERO
Note: The following floating-point exceptions are signalling: IEEE_DIVIDE_BY_ZERO
Note: The following floating-point exceptions are signalling: IEEE_DIVIDE_BY_ZERO
