
     Program PWSCF v.6.2 (svn rev. 13949:13950) starts on 28Oct2021 at  9:40:33 

     This program is part of the open-source Quantum ESPRESSO suite
     for quantum simulation of materials; please cite
         "P. Giannozzi et al., J. Phys.:Condens. Matter 21 395502 (2009);
         "P. Giannozzi et al., J. Phys.:Condens. Matter 29 465901 (2017);
          URL http://www.quantum-espresso.org", 
     in publications or presentations arising from this work. More details at
     http://www.quantum-espresso.org/quote

     Parallel version (MPI), running on     4 processors

     MPI processes distributed on     1 nodes
     R & G space division:  proc/nbgrp/npool/nimage =       4
     Reading input from headeradd_supercell-013.in

     Current dimensions of program PWSCF are:
     Max number of different atomic species (ntypx) = 10
     Max number of k-points (npk) =  40000
     Max angular momentum in pseudopotentials (lmaxx) =  3
     Message from routine iosys:
     minimal I/O required, wf_collect reset to FALSE
               file Bi.pbe-dn-rrkjus_psl.1.0.0.UPF: wavefunction(s)  5D renormalized
               file O.pbe-rrkjus.UPF: wavefunction(s)  2S renormalized

     Subspace diagonalization in iterative solution of the eigenvalue problem:
     a serial algorithm will be used


     Parallelization info
     --------------------
     sticks:   dense  smooth     PW     G-vecs:    dense   smooth      PW
     Min        2104    2104    550               165101   165101   22036
     Max        2105    2105    551               165102   165102   22038
     Sum        8417    8417   2201               660405   660405   88147



     bravais-lattice index     =            0
     lattice parameter (alat)  =      19.6286  a.u.
     unit-cell volume          =    8346.2129 (a.u.)^3
     number of atoms/cell      =           96
     number of atomic types    =            3
     number of electrons       =       704.00
     number of Kohn-Sham states=          352
     kinetic-energy cutoff     =      70.0000  Ry
     charge density cutoff     =     280.0000  Ry
     convergence threshold     =      1.0E-09
     mixing beta               =       0.7000
     number of iterations used =            8  plain     mixing
     Exchange-correlation      =  SLA  PW   PBE  PBE ( 1  4  3  4 0 0)

     celldm(1)=  19.628585  celldm(2)=   0.000000  celldm(3)=   0.000000
     celldm(4)=   0.000000  celldm(5)=   0.000000  celldm(6)=   0.000000

     crystal axes: (cart. coord. in units of alat)
               a(1) = (   1.000000   0.000000   0.000000 )  
               a(2) = (  -0.006620   0.980010   0.000000 )  
               a(3) = (   0.496690   0.490005   1.126138 )  

     reciprocal axes: (cart. coord. in units 2 pi/alat)
               b(1) = (  1.000000  0.006755 -0.443995 )  
               b(2) = (  0.000000  1.020397 -0.443995 )  
               b(3) = (  0.000000 -0.000000  0.887990 )  


     PseudoPot. # 1 for Bi read from file:
     /home/uezono/pseudo/Bi.pbe-dn-rrkjus_psl.1.0.0.UPF
     MD5 check sum: f9abe7488ae443f53c935a63d0032572
     Pseudo is Ultrasoft + core correction, Zval = 15.0
     Generated using "atomic" code by A. Dal Corso  v.6.2.2
     Using radial grid of 1283 points,  6 beta functions with: 
                l(1) =   0
                l(2) =   0
                l(3) =   1
                l(4) =   1
                l(5) =   2
                l(6) =   2
     Q(r) pseudized with 0 coefficients 


     PseudoPot. # 2 for V  read from file:
     /home/uezono/pseudo/V.pbe-n-van.UPF
     MD5 check sum: ff5646be6093ca757d9525862f4bfff1
     Pseudo is Ultrasoft + core correction, Zval =  5.0
     Generated by new atomic code, or converted to UPF format
     Using radial grid of  853 points,  6 beta functions with: 
                l(1) =   0
                l(2) =   0
                l(3) =   1
                l(4) =   1
                l(5) =   2
                l(6) =   2
     Q(r) pseudized with  8 coefficients,  rinner =    1.000   1.000   1.000
                                                       1.000   1.000

     PseudoPot. # 3 for O  read from file:
     /home/uezono/pseudo/O.pbe-rrkjus.UPF
     MD5 check sum: fadcf19ee70a498d3030e2e79cf929a4
     Pseudo is Ultrasoft, Zval =  6.0
     Generated by new atomic code, or converted to UPF format
     Using radial grid of 1269 points,  4 beta functions with: 
                l(1) =   0
                l(2) =   0
                l(3) =   1
                l(4) =   1
     Q(r) pseudized with 0 coefficients 


     atomic species   valence    mass     pseudopotential
        Bi            15.00   208.98040     Bi( 1.00)
        V              5.00    50.94150     V ( 1.00)
        O              6.00    15.99940     O ( 1.00)

     No symmetry found



   Cartesian axes

     site n.     atom                  positions (alat units)
         1           Bi  tau(   1) = (   0.2475177   0.3675039   0.1503395  )
         2           Bi  tau(   2) = (   0.7475177   0.3675039   0.1503395  )
         3           Bi  tau(   3) = (   0.2442079   0.8575091   0.1503395  )
         4           Bi  tau(   4) = (   0.7442079   0.8575091   0.1503395  )
         5           Bi  tau(   5) = (   0.4958628   0.6125065   0.7134087  )
         6           Bi  tau(   6) = (   0.9958628   0.6125065   0.7134087  )
         7           Bi  tau(   7) = (   0.4925531   1.1025117   0.7134087  )
         8           Bi  tau(   8) = (   0.9925531   1.1025117   0.7134087  )
         9           Bi  tau(   9) = (   0.4975177   0.3675039   0.4127297  )
        10           Bi  tau(  10) = (   0.9975177   0.3675039   0.4127297  )
        11           Bi  tau(  11) = (   0.4942079   0.8575091   0.4127297  )
        12           Bi  tau(  12) = (   0.9942079   0.8575091   0.4127297  )
        13           Bi  tau(  13) = (   0.7458628   0.6125065   0.9757990  )
        14           Bi  tau(  14) = (   1.2458628   0.6125065   0.9757990  )
        15           Bi  tau(  15) = (   0.7425531   1.1025117   0.9757990  )
        16           Bi  tau(  16) = (   1.2425531   1.1025117   0.9757990  )
        17           V   tau(  17) = (   0.4991726   0.1225013   0.1463980  )
        18           V   tau(  18) = (   0.9991726   0.1225013   0.1463980  )
        19           V   tau(  19) = (   0.4958628   0.6125065   0.1463980  )
        20           V   tau(  20) = (   0.9958628   0.6125065   0.1463980  )
        21           V   tau(  21) = (   0.7475177   0.3675039   0.7094672  )
        22           V   tau(  22) = (   1.2475177   0.3675039   0.7094672  )
        23           V   tau(  23) = (   0.7442079   0.8575091   0.7094672  )
        24           V   tau(  24) = (   1.2442079   0.8575091   0.7094672  )
        25           V   tau(  25) = (   0.2458628   0.6125065   0.4166712  )
        26           V   tau(  26) = (   0.7458628   0.6125065   0.4166712  )
        27           V   tau(  27) = (   0.2425531   1.1025117   0.4166712  )
        28           V   tau(  28) = (   0.7425531   1.1025117   0.4166712  )
        29           V   tau(  29) = (   0.4942079   0.8575091   0.9797404  )
        30           V   tau(  30) = (   0.9942079   0.8575091   0.9797404  )
        31           V   tau(  31) = (   0.4908982   1.3475143   0.9797404  )
        32           V   tau(  32) = (   0.9908982   1.3475143   0.9797404  )
        33           O   tau(  33) = (   0.5715696   0.2487756   0.2344620  )
        34           O   tau(  34) = (   1.0715696   0.2487756   0.2344620  )
        35           O   tau(  35) = (   0.5682599   0.7387808   0.2344620  )
        36           O   tau(  36) = (   1.0682599   0.7387808   0.2344620  )
        37           O   tau(  37) = (   0.8199148   0.4937782   0.7975312  )
        38           O   tau(  38) = (   1.3199148   0.4937782   0.7975312  )
        39           O   tau(  39) = (   0.8166050   0.9837834   0.7975312  )
        40           O   tau(  40) = (   1.3166050   0.9837834   0.7975312  )
        41           O   tau(  41) = (   0.4234657   0.4862321   0.2344620  )
        42           O   tau(  42) = (   0.9234657   0.4862321   0.2344620  )
        43           O   tau(  43) = (   0.4201560   0.9762373   0.2344620  )
        44           O   tau(  44) = (   0.9201560   0.9762373   0.2344620  )
        45           O   tau(  45) = (   0.6718109   0.7312347   0.7975312  )
        46           O   tau(  46) = (   1.1718109   0.7312347   0.7975312  )
        47           O   tau(  47) = (   0.6685011   1.2212399   0.7975312  )
        48           O   tau(  48) = (   1.1685011   1.2212399   0.7975312  )
        49           O   tau(  49) = (   0.1734657   0.4862321   0.3286072  )
        50           O   tau(  50) = (   0.6734657   0.4862321   0.3286072  )
        51           O   tau(  51) = (   0.1701560   0.9762373   0.3286072  )
        52           O   tau(  52) = (   0.6701560   0.9762373   0.3286072  )
        53           O   tau(  53) = (   0.4218109   0.7312347   0.8916764  )
        54           O   tau(  54) = (   0.9218109   0.7312347   0.8916764  )
        55           O   tau(  55) = (   0.4185011   1.2212399   0.8916764  )
        56           O   tau(  56) = (   0.9185011   1.2212399   0.8916764  )
        57           O   tau(  57) = (   0.3215696   0.2487756   0.3286072  )
        58           O   tau(  58) = (   0.8215696   0.2487756   0.3286072  )
        59           O   tau(  59) = (   0.3182599   0.7387808   0.3286072  )
        60           O   tau(  60) = (   0.8182599   0.7387808   0.3286072  )
        61           O   tau(  61) = (   0.5699148   0.4937782   0.8916764  )
        62           O   tau(  62) = (   1.0699148   0.4937782   0.8916764  )
        63           O   tau(  63) = (   0.5666050   0.9837834   0.8916764  )
        64           O   tau(  64) = (   1.0666050   0.9837834   0.8916764  )
        65           O   tau(  65) = (   0.6267482   0.6766972   0.5059740  )
        66           O   tau(  66) = (   1.1257292   0.6766972   0.5059740  )
        67           O   tau(  67) = (   0.6224195   1.1667024   0.5059740  )
        68           O   tau(  68) = (   1.1224195   1.1667024   0.5059740  )
        69           O   tau(  69) = (   0.8740744   0.9216998   1.0690432  )
        70           O   tau(  70) = (   1.3740744   0.9216998   1.0690432  )
        71           O   tau(  71) = (   0.8707646   1.4117049   1.0690432  )
        72           O   tau(  72) = (   1.3707646   1.4117049   1.0690432  )
        73           O   tau(  73) = (   0.3659964   0.5483158   0.5059740  )
        74           O   tau(  74) = (   0.8659964   0.5483158   0.5059740  )
        75           O   tau(  75) = (   0.3626866   1.0383210   0.5059740  )
        76           O   tau(  76) = (   0.8626866   1.0383210   0.5059740  )
        77           O   tau(  77) = (   0.6143415   0.7933184   1.0690432  )
        78           O   tau(  78) = (   1.1143415   0.7933184   1.0690432  )
        79           O   tau(  79) = (   0.6110318   1.2833236   1.0690432  )
        80           O   tau(  80) = (   1.1110318   1.2833236   1.0690432  )
        81           O   tau(  81) = (   0.1193061   0.0583106   0.0570952  )
        82           O   tau(  82) = (   0.6193061   0.0583106   0.0570952  )
        83           O   tau(  83) = (   0.1159964   0.5483158   0.0570952  )
        84           O   tau(  84) = (   0.6159964   0.5483158   0.0570952  )
        85           O   tau(  85) = (   0.3676513   0.3033132   0.6201644  )
        86           O   tau(  86) = (   0.8676513   0.3033132   0.6201644  )
        87           O   tau(  87) = (   0.3643415   0.7933184   0.6201644  )
        88           O   tau(  88) = (   0.8643415   0.7933184   0.6201644  )
        89           O   tau(  89) = (   0.3790390   0.1866920   0.0570952  )
        90           O   tau(  90) = (   0.8790390   0.1866920   0.0570952  )
        91           O   tau(  91) = (   0.3757292   0.6766972   0.0570952  )
        92           O   tau(  92) = (   0.8757292   0.6766972   0.0570952  )
        93           O   tau(  93) = (   0.6273841   0.4316946   0.6201644  )
        94           O   tau(  94) = (   1.1273841   0.4316946   0.6201644  )
        95           O   tau(  95) = (   0.6240744   0.9216998   0.6201644  )
        96           O   tau(  96) = (   1.1240744   0.9216998   0.6201644  )

     number of k points=     4
                       cart. coord. in units 2pi/alat
        k(    1) = (   0.2500000   0.2567880   0.0000000), wk =   0.5000000
        k(    2) = (   0.2500000   0.2567880  -0.4439951), wk =   0.5000000
        k(    3) = (   0.2500000  -0.2534107   0.2219976), wk =   0.5000000
        k(    4) = (  -0.2500000   0.2534107   0.2219976), wk =   0.5000000

     Dense  grid:   660405 G-vectors     FFT dimensions: ( 108, 108, 144)

     Estimated max dynamical RAM per process >       2.39 GB

     Estimated total dynamical RAM >       9.55 GB

     Initial potential from superposition of free atoms

     starting charge  703.96725, renormalised to  704.00000
     Starting wfc are  544 randomized atomic wfcs

     total cpu time spent up to now is      110.3 secs

     Self-consistent Calculation

     iteration #  1     ecut=    70.00 Ry     beta= 0.70
     Davidson diagonalization with overlap
     ethr =  1.00E-02,  avg # of iterations =  1.0

     total cpu time spent up to now is      270.1 secs

     total energy              =   -4949.31675808 Ry
     Harris-Foulkes estimate   =   -4981.29954923 Ry
     estimated scf accuracy    <      40.93542675 Ry

     iteration #  2     ecut=    70.00 Ry     beta= 0.70
     Davidson diagonalization with overlap
     ethr =  5.81E-03,  avg # of iterations =  4.0

     total cpu time spent up to now is      563.0 secs

     total energy              =   -4901.64659354 Ry
     Harris-Foulkes estimate   =   -5036.11896007 Ry
     estimated scf accuracy    <     570.44488611 Ry

     iteration #  3     ecut=    70.00 Ry     beta= 0.70
     Davidson diagonalization with overlap
     ethr =  5.81E-03,  avg # of iterations =  6.2

     total cpu time spent up to now is      867.2 secs

     total energy              =   -4970.00165807 Ry
     Harris-Foulkes estimate   =   -4977.38155946 Ry
     estimated scf accuracy    <      23.90454870 Ry

     iteration #  4     ecut=    70.00 Ry     beta= 0.70
     Davidson diagonalization with overlap
     ethr =  3.40E-03,  avg # of iterations =  2.0

     total cpu time spent up to now is     1064.6 secs

     total energy              =   -4972.11119915 Ry
     Harris-Foulkes estimate   =   -4972.74437502 Ry
     estimated scf accuracy    <       4.39814889 Ry

     iteration #  5     ecut=    70.00 Ry     beta= 0.70
     Davidson diagonalization with overlap
     ethr =  6.25E-04,  avg # of iterations =  2.0

     total cpu time spent up to now is     1229.4 secs

     total energy              =   -4971.78804791 Ry
     Harris-Foulkes estimate   =   -4972.31524962 Ry
     estimated scf accuracy    <       2.09426455 Ry

     iteration #  6     ecut=    70.00 Ry     beta= 0.70
     Davidson diagonalization with overlap
     ethr =  2.97E-04,  avg # of iterations =  3.0

     total cpu time spent up to now is     1435.0 secs

     total energy              =   -4972.08106959 Ry
     Harris-Foulkes estimate   =   -4972.11857036 Ry
     estimated scf accuracy    <       0.06653397 Ry

     iteration #  7     ecut=    70.00 Ry     beta= 0.70
     Davidson diagonalization with overlap
     ethr =  9.45E-06,  avg # of iterations =  4.0

     total cpu time spent up to now is     1696.5 secs

     total energy              =   -4972.08708196 Ry
     Harris-Foulkes estimate   =   -4972.12900299 Ry
     estimated scf accuracy    <       0.12804533 Ry

     iteration #  8     ecut=    70.00 Ry     beta= 0.70
     Davidson diagonalization with overlap
     ethr =  9.45E-06,  avg # of iterations =  3.0

     total cpu time spent up to now is     1938.9 secs

     total energy              =   -4972.09933198 Ry
     Harris-Foulkes estimate   =   -4972.11737786 Ry
     estimated scf accuracy    <       0.06768456 Ry

     iteration #  9     ecut=    70.00 Ry     beta= 0.70
     Davidson diagonalization with overlap
     ethr =  9.45E-06,  avg # of iterations =  3.0

     total cpu time spent up to now is     2166.0 secs

     total energy              =   -4972.10828993 Ry
     Harris-Foulkes estimate   =   -4972.11381906 Ry
     estimated scf accuracy    <       0.02985057 Ry

     iteration # 10     ecut=    70.00 Ry     beta= 0.70
     Davidson diagonalization with overlap
     ethr =  4.24E-06,  avg # of iterations =  2.2

     total cpu time spent up to now is     2337.1 secs

     total energy              =   -4972.10766642 Ry
     Harris-Foulkes estimate   =   -4972.11014724 Ry
     estimated scf accuracy    <       0.00855101 Ry

     iteration # 11     ecut=    70.00 Ry     beta= 0.70
     Davidson diagonalization with overlap
     ethr =  1.21E-06,  avg # of iterations =  3.0

     total cpu time spent up to now is     2546.1 secs

     total energy              =   -4972.10908280 Ry
     Harris-Foulkes estimate   =   -4972.10914116 Ry
     estimated scf accuracy    <       0.00021644 Ry

     iteration # 12     ecut=    70.00 Ry     beta= 0.70
     Davidson diagonalization with overlap
     ethr =  3.07E-08,  avg # of iterations =  4.0

     total cpu time spent up to now is     2792.7 secs

     total energy              =   -4972.10910160 Ry
     Harris-Foulkes estimate   =   -4972.10917606 Ry
     estimated scf accuracy    <       0.00029187 Ry

     iteration # 13     ecut=    70.00 Ry     beta= 0.70
     Davidson diagonalization with overlap
     ethr =  3.07E-08,  avg # of iterations =  3.0

     total cpu time spent up to now is     3011.0 secs

     total energy              =   -4972.10912585 Ry
     Harris-Foulkes estimate   =   -4972.10914069 Ry
     estimated scf accuracy    <       0.00005521 Ry

     iteration # 14     ecut=    70.00 Ry     beta= 0.70
     Davidson diagonalization with overlap
     ethr =  7.84E-09,  avg # of iterations =  3.0

     total cpu time spent up to now is     3222.4 secs

     total energy              =   -4972.10913201 Ry
     Harris-Foulkes estimate   =   -4972.10913393 Ry
     estimated scf accuracy    <       0.00000528 Ry

     iteration # 15     ecut=    70.00 Ry     beta= 0.70
     Davidson diagonalization with overlap
     ethr =  7.50E-10,  avg # of iterations =  3.0

     total cpu time spent up to now is     3468.7 secs

     total energy              =   -4972.10913230 Ry
     Harris-Foulkes estimate   =   -4972.10913423 Ry
     estimated scf accuracy    <       0.00000690 Ry

     iteration # 16     ecut=    70.00 Ry     beta= 0.70
     Davidson diagonalization with overlap
     ethr =  7.50E-10,  avg # of iterations =  3.0

     total cpu time spent up to now is     3689.5 secs

     total energy              =   -4972.10913318 Ry
     Harris-Foulkes estimate   =   -4972.10913332 Ry
     estimated scf accuracy    <       0.00000032 Ry

     iteration # 17     ecut=    70.00 Ry     beta= 0.70
     Davidson diagonalization with overlap
     ethr =  4.55E-11,  avg # of iterations =  4.0

     total cpu time spent up to now is     3944.2 secs

     total energy              =   -4972.10913321 Ry
     Harris-Foulkes estimate   =   -4972.10913336 Ry
     estimated scf accuracy    <       0.00000063 Ry

     iteration # 18     ecut=    70.00 Ry     beta= 0.70
     Davidson diagonalization with overlap
     ethr =  4.55E-11,  avg # of iterations =  3.0

     total cpu time spent up to now is     4178.0 secs

     total energy              =   -4972.10913328 Ry
     Harris-Foulkes estimate   =   -4972.10913330 Ry
     estimated scf accuracy    <       0.00000005 Ry

     iteration # 19     ecut=    70.00 Ry     beta= 0.70
     Davidson diagonalization with overlap
     ethr =  7.23E-12,  avg # of iterations =  3.0

     total cpu time spent up to now is     4403.3 secs

     total energy              =   -4972.10913329 Ry
     Harris-Foulkes estimate   =   -4972.10913329 Ry
     estimated scf accuracy    <          7.7E-09 Ry

     iteration # 20     ecut=    70.00 Ry     beta= 0.70
     Davidson diagonalization with overlap
     ethr =  1.10E-12,  avg # of iterations =  3.0

     total cpu time spent up to now is     4643.8 secs

     total energy              =   -4972.10913329 Ry
     Harris-Foulkes estimate   =   -4972.10913329 Ry
     estimated scf accuracy    <          6.8E-09 Ry

     iteration # 21     ecut=    70.00 Ry     beta= 0.70
     Davidson diagonalization with overlap
     ethr =  9.67E-13,  avg # of iterations =  3.0

     total cpu time spent up to now is     4870.0 secs

     total energy              =   -4972.10913329 Ry
     Harris-Foulkes estimate   =   -4972.10913329 Ry
     estimated scf accuracy    <          1.7E-09 Ry

     iteration # 22     ecut=    70.00 Ry     beta= 0.70
     Davidson diagonalization with overlap
     ethr =  2.46E-13,  avg # of iterations =  3.0

     total cpu time spent up to now is     5102.6 secs

     total energy              =   -4972.10913329 Ry
     Harris-Foulkes estimate   =   -4972.10913329 Ry
     estimated scf accuracy    <          1.0E-09 Ry

     iteration # 23     ecut=    70.00 Ry     beta= 0.70
     Davidson diagonalization with overlap
     ethr =  1.44E-13,  avg # of iterations =  3.0

     total cpu time spent up to now is     5309.4 secs

     End of self-consistent calculation

          k = 0.2500 0.2568 0.0000 ( 82568 PWs)   bands (ev):

   -14.4889 -14.4883 -14.4867 -14.4853 -14.4840 -14.4835 -14.4824 -14.4817
   -14.4782 -14.4698 -14.4690 -14.4675 -14.4640 -14.4637 -14.4586 -14.4578
   -14.4523 -14.4515 -14.4486 -14.4369 -14.4341 -14.4317 -14.4307 -14.4255
   -14.4239 -14.4134 -14.4127 -14.4073 -14.4064 -14.4058 -14.4047 -14.4033
   -14.4024 -14.4000 -14.3989 -14.3985 -14.3975 -14.3971 -14.3954 -14.3950
   -14.3942 -14.3935 -14.3930 -14.3923 -14.3920 -14.3904 -14.3898 -14.3889
   -14.3880 -14.3860 -14.3844 -14.3837 -14.3817 -14.3810 -14.3804 -14.3799
   -14.3789 -14.3746 -14.3739 -14.3703 -14.3687 -14.3679 -14.3645 -14.3621
   -14.3606 -14.3600 -14.3593 -14.3583 -14.3566 -14.3538 -14.3525 -14.3517
   -14.3507 -14.3490 -14.3482 -14.3463 -14.3459 -14.3423 -14.3412 -14.3367
   -10.4957 -10.2960 -10.1666 -10.1648 -10.1208 -10.1191  -9.9298  -9.8053
    -9.6778  -9.6052  -9.6038  -9.6002  -9.5987  -9.5449  -9.4693  -9.3936
    -9.3595  -9.3213  -9.3206  -9.3143  -9.3027  -9.2805  -9.2796  -9.2520
    -9.2428  -9.1709  -9.1482  -9.1146  -9.1129  -9.0842  -9.0832  -9.0662
    -9.0635  -9.0421  -9.0405  -9.0396  -8.9746  -8.9736  -8.9540  -8.9455
    -8.9350  -8.9332  -8.9249  -8.8990  -8.8922  -8.8906  -8.8892  -8.8631
    -8.8265  -8.8248  -8.8241  -8.8218  -8.8209  -8.8048  -8.7845  -8.7834
    -8.7767  -8.7531  -8.7147  -8.7050  -8.7042  -8.6869  -8.6860  -8.6591
    -2.2088  -2.0748  -2.0736  -1.9662  -1.9022  -1.9014  -1.8936  -1.7952
    -1.5982  -1.5532  -1.5519  -1.5042  -1.4726  -1.3594  -1.3582  -1.3055
     2.4198   2.4641   2.4982   2.4995   2.5542   2.5544   2.6749   2.7353
     2.7358   2.7410   2.7507   2.7517   2.7649   2.7710   2.7753   2.8356
     2.8358   2.9409   2.9518   2.9761   2.9764   3.0038   3.1128   3.1804
     3.1812   3.2218   3.2517   3.2522   3.2813   3.3611   3.3859   3.3864
     3.4143   3.4218   3.4223   3.5345   3.5351   3.6263   3.6425   3.7109
     3.7117   3.7690   3.7755   3.7910   3.8960   3.8975   3.8982   3.9698
     3.9954   4.0176   4.0273   4.0428   4.0430   4.0433   4.0438   4.1458
     4.1861   4.2083   4.2090   4.2359   4.2395   4.2402   4.2450   4.2677
     4.2847   4.2853   4.3007   4.3514   4.3648   4.3687   4.3699   4.3759
     4.3823   4.3831   4.4045   4.4080   4.4418   4.4870   4.4930   4.4936
     4.5356   4.5378   4.6137   4.6349   4.6354   4.6440   4.6444   4.6722
     4.6733   4.6800   4.6958   4.6999   4.7125   4.7213   4.7672   4.7698
     4.7704   4.8412   4.8612   4.8615   4.9197   4.9344   5.0016   5.0074
     5.0081   5.0558   5.0566   5.0928   5.0938   5.1130   5.1229   5.1234
     5.1457   5.1461   5.2147   5.2735   5.2866   5.2875   5.2882   5.3621
     5.3682   5.3688   5.3939   5.3979   5.4237   5.5199   5.5205   5.5455
     5.6495   5.7452   5.7461   5.7519   5.8379   5.8537   5.8542   5.8700
     5.8904   5.9899   5.9926   5.9933   6.0026   6.0649   6.0654   6.1332
     6.1357   6.1559   6.2482   6.2715   6.2722   6.2738   6.2745   6.2753
     6.2852   6.2856   6.2957   6.4121   6.4127   6.4141   6.4193   6.4233
     6.4643   6.4656   6.4738   6.4749   6.4922   6.5822   6.5896   6.5903
     6.6959   6.6974   6.7263   6.7914   6.7916   6.7954   6.8118   6.8680
     6.8741   6.8783   6.8796   6.9325   6.9424   6.9469   6.9475   6.9901
     6.9906   7.0636   7.1484   7.2882   7.2891   7.3685   7.3696   7.4769

          k = 0.2500 0.2568-0.4440 ( 82488 PWs)   bands (ev):

   -14.4891 -14.4884 -14.4863 -14.4852 -14.4845 -14.4841 -14.4832 -14.4788
   -14.4757 -14.4741 -14.4729 -14.4613 -14.4583 -14.4578 -14.4569 -14.4562
   -14.4534 -14.4533 -14.4523 -14.4498 -14.4356 -14.4325 -14.4316 -14.4235
   -14.4211 -14.4169 -14.4161 -14.4144 -14.4083 -14.4069 -14.4046 -14.4037
   -14.4007 -14.4003 -14.3992 -14.3983 -14.3972 -14.3970 -14.3969 -14.3952
   -14.3942 -14.3934 -14.3924 -14.3911 -14.3903 -14.3892 -14.3889 -14.3860
   -14.3855 -14.3843 -14.3838 -14.3828 -14.3801 -14.3765 -14.3757 -14.3734
   -14.3727 -14.3716 -14.3709 -14.3707 -14.3701 -14.3697 -14.3688 -14.3680
   -14.3631 -14.3622 -14.3613 -14.3568 -14.3554 -14.3543 -14.3535 -14.3519
   -14.3513 -14.3494 -14.3492 -14.3481 -14.3479 -14.3422 -14.3412 -14.3362
   -10.4127 -10.4111 -10.2238 -10.1944 -10.0982 -10.0186  -9.8746  -9.8729
    -9.6767  -9.6002  -9.5592  -9.5143  -9.5091  -9.5073  -9.4913  -9.4905
    -9.4420  -9.4401  -9.3934  -9.3919  -9.2303  -9.2250  -9.2235  -9.1949
    -9.1937  -9.1700  -9.1693  -9.1525  -9.1422  -9.1383  -9.1233  -9.0857
    -9.0668  -9.0656  -9.0501  -8.9818  -8.9742  -8.9637  -8.9094  -8.9081
    -8.9010  -8.8995  -8.8941  -8.8893  -8.8882  -8.8801  -8.8760  -8.8754
    -8.8533  -8.8407  -8.8312  -8.8302  -8.8166  -8.8154  -8.8007  -8.7862
    -8.7849  -8.7648  -8.7196  -8.6979  -8.6928  -8.6856  -8.6847  -8.6825
    -2.1227  -2.0997  -2.0988  -2.0231  -1.9818  -1.8519  -1.8508  -1.7737
    -1.6575  -1.5448  -1.5435  -1.4962  -1.3901  -1.3779  -1.3767  -1.3307
     2.4965   2.5000   2.5658   2.5685   2.5698   2.5716   2.6232   2.6615
     2.6620   2.7255   2.7261   2.7512   2.7526   2.7767   2.8682   2.8698
     2.8701   2.8738   2.8780   2.8790   2.9146   3.0341   3.0926   3.1337
     3.1395   3.1401   3.2568   3.2598   3.2724   3.2855   3.2977   3.2983
     3.3714   3.4345   3.4615   3.4620   3.6022   3.6030   3.6717   3.7699
     3.7988   3.8284   3.9021   3.9033   3.9852   3.9862   4.0149   4.0361
     4.0466   4.0658   4.0838   4.0935   4.1179   4.1184   4.1496   4.1696
     4.1709   4.2037   4.2212   4.2227   4.2230   4.2365   4.2642   4.2841
     4.2848   4.2958   4.2981   4.2984   4.3189   4.3391   4.3399   4.3423
     4.4064   4.4309   4.4320   4.4338   4.4720   4.4739   4.4744   4.4785
     4.4810   4.4813   4.5264   4.5320   4.5513   4.5518   4.6011   4.6248
     4.6257   4.6411   4.6858   4.6864   4.7301   4.7919   4.8224   4.8228
     4.8313   4.8326   4.8640   4.8778   4.8788   4.8855   4.8863   4.8975
     4.8982   4.9906   5.0364   5.0370   5.0929   5.1059   5.1166   5.1532
     5.1650   5.1653   5.2044   5.2261   5.2457   5.2463   5.2545   5.2745
     5.3072   5.3362   5.3370   5.4451   5.4709   5.5703   5.5711   5.6567
     5.7135   5.7950   5.7997   5.8006   5.8117   5.8864   5.8873   5.9155
     5.9797   6.0127   6.0304   6.0314   6.0554   6.0655   6.0674   6.0679
     6.1153   6.1613   6.1697   6.1701   6.1875   6.2018   6.2027   6.2754
     6.3441   6.3544   6.3558   6.4011   6.4019   6.4100   6.4909   6.4918
     6.5010   6.5125   6.5236   6.5265   6.5775   6.5872   6.6173   6.6365
     6.6375   6.6574   6.6860   6.6867   6.7874   6.7883   6.8015   6.8028
     6.8245   6.8802   6.8811   6.9345   6.9356   6.9550   6.9554   6.9715
     7.0241   7.0309   7.0883   7.1804   7.3431   7.3441   7.4392   7.5541

          k = 0.2500-0.2534 0.2220 ( 82555 PWs)   bands (ev):

   -14.4894 -14.4880 -14.4867 -14.4858 -14.4850 -14.4839 -14.4832 -14.4782
   -14.4756 -14.4734 -14.4713 -14.4640 -14.4614 -14.4605 -14.4594 -14.4576
   -14.4546 -14.4513 -14.4480 -14.4430 -14.4361 -14.4314 -14.4293 -14.4260
   -14.4228 -14.4158 -14.4126 -14.4099 -14.4081 -14.4075 -14.4064 -14.4039
   -14.4018 -14.3992 -14.3984 -14.3979 -14.3971 -14.3967 -14.3955 -14.3949
   -14.3942 -14.3933 -14.3923 -14.3906 -14.3903 -14.3900 -14.3897 -14.3891
   -14.3873 -14.3856 -14.3842 -14.3836 -14.3834 -14.3798 -14.3773 -14.3746
   -14.3743 -14.3733 -14.3722 -14.3717 -14.3699 -14.3686 -14.3661 -14.3651
   -14.3622 -14.3614 -14.3582 -14.3569 -14.3563 -14.3557 -14.3529 -14.3515
   -14.3505 -14.3501 -14.3487 -14.3474 -14.3470 -14.3415 -14.3405 -14.3370
   -10.4777 -10.3424 -10.2008 -10.1566 -10.1059 -10.0289  -9.9440  -9.8707
    -9.6904  -9.6132  -9.6074  -9.5884  -9.5733  -9.4715  -9.4146  -9.4078
    -9.4071  -9.3902  -9.3831  -9.3602  -9.2468  -9.2334  -9.2224  -9.2011
    -9.1965  -9.1779  -9.1651  -9.1332  -9.1212  -9.1185  -9.1114  -9.1100
    -9.0623  -9.0588  -9.0571  -9.0240  -9.0218  -9.0101  -8.9360  -8.9352
    -8.9319  -8.9145  -8.9138  -8.8899  -8.8864  -8.8850  -8.8490  -8.8475
    -8.8419  -8.8400  -8.8077  -8.7965  -8.7954  -8.7847  -8.7828  -8.7723
    -8.7686  -8.7637  -8.7592  -8.7326  -8.7103  -8.7049  -8.6765  -8.6497
    -2.1763  -2.1136  -2.0313  -2.0124  -1.9599  -1.8804  -1.8254  -1.8189
    -1.6239  -1.5604  -1.5200  -1.5113  -1.4291  -1.3971  -1.3351  -1.3238
     2.4309   2.4819   2.5236   2.5559   2.5781   2.5805   2.5821   2.6380
     2.6910   2.7008   2.7257   2.7407   2.7826   2.7905   2.8053   2.8415
     2.8422   2.8599   3.0154   3.0339   3.0563   3.0831   3.1174   3.1267
     3.1429   3.1915   3.1945   3.2118   3.2336   3.2543   3.3122   3.3726
     3.5128   3.5257   3.5412   3.5496   3.5758   3.6006   3.6512   3.6564
     3.6875   3.6970   3.8616   3.8731   3.9108   3.9334   3.9451   3.9518
     3.9847   3.9862   4.0109   4.0483   4.0978   4.1150   4.1279   4.1405
     4.1477   4.1952   4.2017   4.2049   4.2117   4.2312   4.2334   4.2422
     4.2494   4.2521   4.2943   4.3071   4.3406   4.3550   4.3567   4.3828
     4.4241   4.4265   4.4330   4.4446   4.4533   4.4682   4.4969   4.5299
     4.5393   4.5403   4.5413   4.5653   4.5729   4.6677   4.6687   4.6828
     4.6889   4.7129   4.7344   4.7371   4.7490   4.7530   4.7566   4.7636
     4.7914   4.7976   4.8716   4.8752   4.8778   4.9045   4.9318   4.9646
     4.9768   4.9994   5.0321   5.0497   5.0929   5.0952   5.1237   5.1779
     5.1852   5.2021   5.2299   5.2568   5.2663   5.2684   5.2963   5.3008
     5.3744   5.3763   5.4499   5.4658   5.5045   5.5398   5.5438   5.6074
     5.6760   5.6875   5.6929   5.7124   5.7219   5.7494   5.8081   5.8542
     5.8890   5.9410   5.9614   5.9761   5.9883   6.0377   6.0480   6.1430
     6.1517   6.2003   6.2278   6.2532   6.2729   6.2745   6.2800   6.3109
     6.3353   6.3532   6.3582   6.3774   6.4239   6.4332   6.4337   6.4784
     6.4793   6.5016   6.5552   6.5680   6.6152   6.6213   6.6616   6.6650
     6.6909   6.6919   6.6935   6.7218   6.7256   6.7318   6.7481   6.7901
     6.8297   6.8701   6.8873   6.9218   6.9377   6.9425   6.9568   6.9790
     6.9817   7.0789   7.1196   7.2376   7.2882   7.3052   7.4628   7.4677

          k =-0.2500 0.2534 0.2220 ( 82555 PWs)   bands (ev):

   -14.4893 -14.4882 -14.4865 -14.4859 -14.4852 -14.4839 -14.4831 -14.4781
   -14.4755 -14.4737 -14.4711 -14.4640 -14.4619 -14.4598 -14.4597 -14.4572
   -14.4549 -14.4511 -14.4482 -14.4430 -14.4360 -14.4317 -14.4290 -14.4261
   -14.4228 -14.4156 -14.4130 -14.4095 -14.4084 -14.4078 -14.4061 -14.4043
   -14.4013 -14.3997 -14.3984 -14.3974 -14.3970 -14.3969 -14.3955 -14.3946
   -14.3942 -14.3933 -14.3925 -14.3908 -14.3905 -14.3900 -14.3898 -14.3888
   -14.3874 -14.3852 -14.3844 -14.3836 -14.3833 -14.3797 -14.3770 -14.3749
   -14.3745 -14.3733 -14.3717 -14.3715 -14.3702 -14.3684 -14.3663 -14.3655
   -14.3623 -14.3614 -14.3576 -14.3571 -14.3568 -14.3552 -14.3531 -14.3514
   -14.3503 -14.3501 -14.3488 -14.3476 -14.3469 -14.3416 -14.3404 -14.3370
   -10.4777 -10.3424 -10.2008 -10.1566 -10.1059 -10.0289  -9.9440  -9.8706
    -9.6905  -9.6132  -9.6077  -9.5883  -9.5731  -9.4715  -9.4145  -9.4078
    -9.4067  -9.3898  -9.3831  -9.3604  -9.2467  -9.2336  -9.2230  -9.2018
    -9.1965  -9.1779  -9.1652  -9.1332  -9.1210  -9.1185  -9.1110  -9.1103
    -9.0625  -9.0574  -9.0568  -9.0235  -9.0223  -9.0103  -8.9372  -8.9356
    -8.9314  -8.9146  -8.9140  -8.8893  -8.8862  -8.8850  -8.8491  -8.8474
    -8.8418  -8.8397  -8.8083  -8.7966  -8.7946  -8.7852  -8.7832  -8.7726
    -8.7681  -8.7634  -8.7589  -8.7330  -8.7103  -8.7048  -8.6766  -8.6496
    -2.1762  -2.1133  -2.0317  -2.0125  -1.9599  -1.8806  -1.8251  -1.8186
    -1.6241  -1.5608  -1.5196  -1.5113  -1.4289  -1.3967  -1.3355  -1.3238
     2.4309   2.4815   2.5235   2.5560   2.5779   2.5805   2.5825   2.6381
     2.6914   2.7008   2.7260   2.7411   2.7825   2.7903   2.8050   2.8413
     2.8423   2.8600   3.0155   3.0337   3.0561   3.0830   3.1175   3.1268
     3.1424   3.1918   3.1946   3.2113   3.2337   3.2544   3.3121   3.3726
     3.5123   3.5259   3.5403   3.5499   3.5763   3.6005   3.6506   3.6568
     3.6878   3.6965   3.8616   3.8725   3.9121   3.9340   3.9449   3.9525
     3.9849   3.9861   4.0114   4.0480   4.0980   4.1150   4.1273   4.1407
     4.1485   4.1958   4.2013   4.2056   4.2122   4.2312   4.2337   4.2413
     4.2489   4.2522   4.2936   4.3074   4.3410   4.3544   4.3565   4.3830
     4.4240   4.4268   4.4325   4.4448   4.4527   4.4682   4.4969   4.5291
     4.5388   4.5402   4.5416   4.5650   4.5724   4.6683   4.6687   4.6828
     4.6888   4.7126   4.7348   4.7386   4.7498   4.7526   4.7566   4.7626
     4.7912   4.7980   4.8717   4.8749   4.8772   4.9046   4.9326   4.9658
     4.9758   4.9992   5.0312   5.0498   5.0928   5.0951   5.1237   5.1776
     5.1851   5.2025   5.2301   5.2564   5.2664   5.2688   5.2961   5.3008
     5.3751   5.3765   5.4499   5.4655   5.5036   5.5399   5.5447   5.6070
     5.6762   5.6880   5.6924   5.7122   5.7221   5.7494   5.8083   5.8536
     5.8894   5.9407   5.9607   5.9759   5.9887   6.0377   6.0484   6.1431
     6.1514   6.2007   6.2280   6.2530   6.2727   6.2742   6.2797   6.3113
     6.3350   6.3530   6.3586   6.3777   6.4243   6.4332   6.4342   6.4784
     6.4794   6.5016   6.5550   6.5675   6.6150   6.6214   6.6616   6.6652
     6.6912   6.6920   6.6936   6.7215   6.7264   6.7315   6.7479   6.7898
     6.8300   6.8700   6.8868   6.9216   6.9378   6.9425   6.9567   6.9787
     6.9815   7.0796   7.1200   7.2378   7.2875   7.3049   7.4630   7.4678

     highest occupied level (ev):     7.5541

!    total energy              =   -4972.10913329 Ry
     Harris-Foulkes estimate   =   -4972.10913329 Ry
     estimated scf accuracy    <          4.4E-11 Ry

     The total energy is the sum of the following terms:

     one-electron contribution =   -1193.10785269 Ry
     hartree contribution      =    1074.13373404 Ry
     xc contribution           =   -1297.70572369 Ry
     ewald contribution        =   -3555.42929095 Ry

     convergence has been achieved in  23 iterations

     Forces acting on atoms (cartesian axes, Ry/au):

     atom    1 type  1   force =    -0.00003758    0.00001956   -0.01385633
     atom    2 type  1   force =    -0.00003135    0.00018899   -0.01359200
     atom    3 type  1   force =    -0.00013148   -0.00003351   -0.01390975
     atom    4 type  1   force =     0.00023290   -0.00021955   -0.01355072
     atom    5 type  1   force =    -0.00014606   -0.00018295   -0.01321121
     atom    6 type  1   force =    -0.00023495   -0.00006673   -0.01414971
     atom    7 type  1   force =     0.00002642    0.00004267   -0.01383813
     atom    8 type  1   force =    -0.00004339    0.00000600   -0.01387325
     atom    9 type  1   force =     0.00029221    0.00000994    0.01368653
     atom   10 type  1   force =    -0.00028836    0.00031012    0.01396080
     atom   11 type  1   force =    -0.00015511    0.00057804    0.01336612
     atom   12 type  1   force =    -0.00038836   -0.00024263    0.01371917
     atom   13 type  1   force =     0.00005852   -0.00000241    0.01387409
     atom   14 type  1   force =    -0.00005002    0.00001571    0.01393287
     atom   15 type  1   force =     0.00001241   -0.00000938    0.01388143
     atom   16 type  1   force =    -0.00000997    0.00000134    0.01392528
     atom   17 type  2   force =     0.00017853    0.00020559    0.00446369
     atom   18 type  2   force =    -0.00004566    0.00003041    0.00458712
     atom   19 type  2   force =     0.00002602   -0.00016430    0.00451943
     atom   20 type  2   force =    -0.00019673    0.00000379    0.00470091
     atom   21 type  2   force =     0.00014401    0.00004610    0.00445496
     atom   22 type  2   force =    -0.00010129   -0.00013037    0.00444200
     atom   23 type  2   force =     0.00033469   -0.00009857    0.00447958
     atom   24 type  2   force =    -0.00020595    0.00005470    0.00463443
     atom   25 type  2   force =    -0.00031446    0.00002816   -0.00461772
     atom   26 type  2   force =     0.00586260   -0.00252966   -0.00844467
     atom   27 type  2   force =    -0.00025907    0.00010532   -0.00467706
     atom   28 type  2   force =     0.00009792    0.00010853   -0.00454072
     atom   29 type  2   force =     0.00004839    0.00009826   -0.00444837
     atom   30 type  2   force =    -0.00000211   -0.00001620   -0.00453658
     atom   31 type  2   force =    -0.00006309   -0.00008497   -0.00445491
     atom   32 type  2   force =     0.00002491   -0.00000247   -0.00454266
     atom   33 type  3   force =    -0.00024410   -0.00139327    0.00010936
     atom   34 type  3   force =    -0.00015207   -0.00133369    0.00009373
     atom   35 type  3   force =    -0.00024324   -0.00122699    0.00038084
     atom   36 type  3   force =    -0.00003747   -0.00123262    0.00014676
     atom   37 type  3   force =    -0.00019252   -0.00129750    0.00021478
     atom   38 type  3   force =     0.00009921   -0.00103871    0.00013292
     atom   39 type  3   force =    -0.00017946   -0.00126504    0.00017034
     atom   40 type  3   force =    -0.00017643   -0.00130717    0.00014526
     atom   41 type  3   force =    -0.00039319    0.00172817    0.00017908
     atom   42 type  3   force =    -0.00026544    0.00167043    0.00010259
     atom   43 type  3   force =    -0.00029065    0.00139787    0.00066690
     atom   44 type  3   force =    -0.00032301    0.00174611    0.00018886
     atom   45 type  3   force =    -0.00041651    0.00163593    0.00021761
     atom   46 type  3   force =    -0.00024108    0.00178714    0.00020131
     atom   47 type  3   force =    -0.00036140    0.00167891    0.00022460
     atom   48 type  3   force =    -0.00031870    0.00173098    0.00019082
     atom   49 type  3   force =     0.00024970    0.00137430   -0.00011311
     atom   50 type  3   force =    -0.00073191    0.00048273   -0.00050499
     atom   51 type  3   force =     0.00027510    0.00137062   -0.00017222
     atom   52 type  3   force =    -0.00005611    0.00121238   -0.00012293
     atom   53 type  3   force =     0.00017747    0.00109951   -0.00037175
     atom   54 type  3   force =     0.00014615    0.00130116   -0.00012467
     atom   55 type  3   force =     0.00017471    0.00129678   -0.00016934
     atom   56 type  3   force =     0.00016721    0.00127195   -0.00017323
     atom   57 type  3   force =     0.00026794   -0.00178330   -0.00021310
     atom   58 type  3   force =     0.00029759   -0.00179076   -0.00019166
     atom   59 type  3   force =     0.00041839   -0.00159833   -0.00017848
     atom   60 type  3   force =     0.00095173   -0.00077087   -0.00097058
     atom   61 type  3   force =     0.00027605   -0.00153819   -0.00041991
     atom   62 type  3   force =     0.00036534   -0.00172541   -0.00017911
     atom   63 type  3   force =     0.00032205   -0.00171539   -0.00021316
     atom   64 type  3   force =     0.00034461   -0.00169111   -0.00022240
     atom   65 type  3   force =    -0.01532444    0.00812927    0.00956453
     atom   66 type  3   force =    -0.00858507    0.00531639    0.00540699
     atom   67 type  3   force =    -0.00876547    0.00537644    0.00548516
     atom   68 type  3   force =    -0.00862009    0.00528773    0.00544335
     atom   69 type  3   force =    -0.00875720    0.00538502    0.00546372
     atom   70 type  3   force =    -0.00870062    0.00535558    0.00539282
     atom   71 type  3   force =    -0.00876046    0.00539350    0.00547822
     atom   72 type  3   force =    -0.00870383    0.00536833    0.00540176
     atom   73 type  3   force =     0.00877250   -0.00499876    0.00556806
     atom   74 type  3   force =     0.00949622   -0.00566300    0.00605022
     atom   75 type  3   force =     0.00874365   -0.00538498    0.00546377
     atom   76 type  3   force =     0.00838702   -0.00507580    0.00547920
     atom   77 type  3   force =     0.00839139   -0.00508236    0.00544650
     atom   78 type  3   force =     0.00840102   -0.00510871    0.00544504
     atom   79 type  3   force =     0.00840093   -0.00506552    0.00545161
     atom   80 type  3   force =     0.00839143   -0.00510284    0.00544497
     atom   81 type  3   force =     0.00879767   -0.00541350   -0.00549575
     atom   82 type  3   force =     0.00865922   -0.00530565   -0.00544076
     atom   83 type  3   force =     0.00881476   -0.00541492   -0.00550181
     atom   84 type  3   force =     0.00870423   -0.00534504   -0.00548160
     atom   85 type  3   force =     0.00869429   -0.00537712   -0.00540477
     atom   86 type  3   force =     0.00870594   -0.00541877   -0.00539132
     atom   87 type  3   force =     0.00896612   -0.00549119   -0.00559608
     atom   88 type  3   force =     0.00877216   -0.00517141   -0.00519611
     atom   89 type  3   force =    -0.00839646    0.00505884   -0.00545459
     atom   90 type  3   force =    -0.00839626    0.00506370   -0.00550116
     atom   91 type  3   force =    -0.00841560    0.00510334   -0.00547323
     atom   92 type  3   force =    -0.00841581    0.00509335   -0.00555064
     atom   93 type  3   force =    -0.00858080    0.00516253   -0.00546994
     atom   94 type  3   force =    -0.00832040    0.00505999   -0.00543011
     atom   95 type  3   force =    -0.00857962    0.00505045   -0.00561641
     atom   96 type  3   force =    -0.00832094    0.00506902   -0.00539139

     Total force =     0.089538     Total SCF correction =     0.000025


     Computing stress (Cartesian axis) and pressure

          total   stress  (Ry/bohr**3)                   (kbar)     P=   40.75
   0.00029289   0.00000078  -0.00000089         43.09      0.11     -0.13
   0.00000078   0.00026743   0.00000044          0.11     39.34      0.06
  -0.00000089   0.00000044   0.00027062         -0.13      0.06     39.81


     init_run     :    107.85s CPU    109.97s WALL (       1 calls)
     electrons    :   5106.09s CPU   5199.14s WALL (       1 calls)
     forces       :     34.48s CPU     34.98s WALL (       1 calls)
     stress       :    298.81s CPU    299.92s WALL (       1 calls)

     Called by init_run:
     wfcinit      :     94.26s CPU     96.02s WALL (       1 calls)
     potinit      :      4.54s CPU      4.59s WALL (       1 calls)

     Called by electrons:
     c_bands      :   4407.94s CPU   4480.72s WALL (      23 calls)
     sum_band     :    661.10s CPU    675.65s WALL (      23 calls)
     v_of_rho     :      9.30s CPU      9.51s WALL (      24 calls)
     newd         :     26.46s CPU     32.26s WALL (      24 calls)
     mix_rho      :      2.48s CPU      2.51s WALL (      23 calls)

     Called by c_bands:
     init_us_2    :     25.83s CPU     25.89s WALL (     196 calls)
     cegterg      :   4332.53s CPU   4405.25s WALL (      92 calls)

     Called by sum_band:
     sum_band:bec :      0.22s CPU      0.21s WALL (      92 calls)
     addusdens    :     37.86s CPU     44.16s WALL (      23 calls)

     Called by *egterg:
     h_psi        :   3195.88s CPU   3239.96s WALL (     382 calls)
     s_psi        :    325.43s CPU    325.41s WALL (     382 calls)
     g_psi        :      5.69s CPU      5.72s WALL (     286 calls)
     cdiaghg      :    136.04s CPU    136.12s WALL (     378 calls)

     Called by h_psi:
     h_psi:pot    :   3177.96s CPU   3221.95s WALL (     382 calls)
     h_psi:calbec :    305.70s CPU    305.95s WALL (     382 calls)
     vloc_psi     :   2545.25s CPU   2588.95s WALL (     382 calls)
     add_vuspsi   :    327.01s CPU    327.04s WALL (     382 calls)

     General routines
     calbec       :    435.48s CPU    435.87s WALL (     494 calls)
     fft          :      8.88s CPU      9.31s WALL (     336 calls)
     fftw         :   2587.46s CPU   2637.86s WALL (  221214 calls)

     Parallel routines
     fft_scatt_xy :    447.48s CPU    448.13s WALL (  221550 calls)
     fft_scatt_yz :    497.46s CPU    527.50s WALL (  221550 calls)

     PWSCF        :     1h32m CPU        1h34m WALL


   This run was terminated on:  11:14:37  28Oct2021            

=------------------------------------------------------------------------------=
   JOB DONE.
=------------------------------------------------------------------------------=
Note: The following floating-point exceptions are signalling: IEEE_DIVIDE_BY_ZERO
Note: The following floating-point exceptions are signalling: IEEE_DIVIDE_BY_ZERO
Note: The following floating-point exceptions are signalling: IEEE_DIVIDE_BY_ZERO
Note: The following floating-point exceptions are signalling: IEEE_DIVIDE_BY_ZERO IEEE_UNDERFLOW_FLAG IEEE_DENORMAL
