
     Program PWSCF v.6.2 (svn rev. 13949:13950) starts on 28Oct2021 at 11:14:37 

     This program is part of the open-source Quantum ESPRESSO suite
     for quantum simulation of materials; please cite
         "P. Giannozzi et al., J. Phys.:Condens. Matter 21 395502 (2009);
         "P. Giannozzi et al., J. Phys.:Condens. Matter 29 465901 (2017);
          URL http://www.quantum-espresso.org", 
     in publications or presentations arising from this work. More details at
     http://www.quantum-espresso.org/quote

     Parallel version (MPI), running on     4 processors

     MPI processes distributed on     1 nodes
     R & G space division:  proc/nbgrp/npool/nimage =       4
     Reading input from headeradd_supercell-014.in

     Current dimensions of program PWSCF are:
     Max number of different atomic species (ntypx) = 10
     Max number of k-points (npk) =  40000
     Max angular momentum in pseudopotentials (lmaxx) =  3
     Message from routine iosys:
     minimal I/O required, wf_collect reset to FALSE
               file Bi.pbe-dn-rrkjus_psl.1.0.0.UPF: wavefunction(s)  5D renormalized
               file O.pbe-rrkjus.UPF: wavefunction(s)  2S renormalized

     Subspace diagonalization in iterative solution of the eigenvalue problem:
     a serial algorithm will be used


     Parallelization info
     --------------------
     sticks:   dense  smooth     PW     G-vecs:    dense   smooth      PW
     Min        2104    2104    550               165101   165101   22036
     Max        2105    2105    551               165102   165102   22038
     Sum        8417    8417   2201               660405   660405   88147



     bravais-lattice index     =            0
     lattice parameter (alat)  =      19.6286  a.u.
     unit-cell volume          =    8346.2129 (a.u.)^3
     number of atoms/cell      =           96
     number of atomic types    =            3
     number of electrons       =       704.00
     number of Kohn-Sham states=          352
     kinetic-energy cutoff     =      70.0000  Ry
     charge density cutoff     =     280.0000  Ry
     convergence threshold     =      1.0E-09
     mixing beta               =       0.7000
     number of iterations used =            8  plain     mixing
     Exchange-correlation      =  SLA  PW   PBE  PBE ( 1  4  3  4 0 0)

     celldm(1)=  19.628585  celldm(2)=   0.000000  celldm(3)=   0.000000
     celldm(4)=   0.000000  celldm(5)=   0.000000  celldm(6)=   0.000000

     crystal axes: (cart. coord. in units of alat)
               a(1) = (   1.000000   0.000000   0.000000 )  
               a(2) = (  -0.006620   0.980010   0.000000 )  
               a(3) = (   0.496690   0.490005   1.126138 )  

     reciprocal axes: (cart. coord. in units 2 pi/alat)
               b(1) = (  1.000000  0.006755 -0.443995 )  
               b(2) = (  0.000000  1.020397 -0.443995 )  
               b(3) = (  0.000000 -0.000000  0.887990 )  


     PseudoPot. # 1 for Bi read from file:
     /home/uezono/pseudo/Bi.pbe-dn-rrkjus_psl.1.0.0.UPF
     MD5 check sum: f9abe7488ae443f53c935a63d0032572
     Pseudo is Ultrasoft + core correction, Zval = 15.0
     Generated using "atomic" code by A. Dal Corso  v.6.2.2
     Using radial grid of 1283 points,  6 beta functions with: 
                l(1) =   0
                l(2) =   0
                l(3) =   1
                l(4) =   1
                l(5) =   2
                l(6) =   2
     Q(r) pseudized with 0 coefficients 


     PseudoPot. # 2 for V  read from file:
     /home/uezono/pseudo/V.pbe-n-van.UPF
     MD5 check sum: ff5646be6093ca757d9525862f4bfff1
     Pseudo is Ultrasoft + core correction, Zval =  5.0
     Generated by new atomic code, or converted to UPF format
     Using radial grid of  853 points,  6 beta functions with: 
                l(1) =   0
                l(2) =   0
                l(3) =   1
                l(4) =   1
                l(5) =   2
                l(6) =   2
     Q(r) pseudized with  8 coefficients,  rinner =    1.000   1.000   1.000
                                                       1.000   1.000

     PseudoPot. # 3 for O  read from file:
     /home/uezono/pseudo/O.pbe-rrkjus.UPF
     MD5 check sum: fadcf19ee70a498d3030e2e79cf929a4
     Pseudo is Ultrasoft, Zval =  6.0
     Generated by new atomic code, or converted to UPF format
     Using radial grid of 1269 points,  4 beta functions with: 
                l(1) =   0
                l(2) =   0
                l(3) =   1
                l(4) =   1
     Q(r) pseudized with 0 coefficients 


     atomic species   valence    mass     pseudopotential
        Bi            15.00   208.98040     Bi( 1.00)
        V              5.00    50.94150     V ( 1.00)
        O              6.00    15.99940     O ( 1.00)

     No symmetry found



   Cartesian axes

     site n.     atom                  positions (alat units)
         1           Bi  tau(   1) = (   0.2475177   0.3675039   0.1503395  )
         2           Bi  tau(   2) = (   0.7475177   0.3675039   0.1503395  )
         3           Bi  tau(   3) = (   0.2442079   0.8575091   0.1503395  )
         4           Bi  tau(   4) = (   0.7442079   0.8575091   0.1503395  )
         5           Bi  tau(   5) = (   0.4958628   0.6125065   0.7134087  )
         6           Bi  tau(   6) = (   0.9958628   0.6125065   0.7134087  )
         7           Bi  tau(   7) = (   0.4925531   1.1025117   0.7134087  )
         8           Bi  tau(   8) = (   0.9925531   1.1025117   0.7134087  )
         9           Bi  tau(   9) = (   0.4975177   0.3675039   0.4127297  )
        10           Bi  tau(  10) = (   0.9975177   0.3675039   0.4127297  )
        11           Bi  tau(  11) = (   0.4942079   0.8575091   0.4127297  )
        12           Bi  tau(  12) = (   0.9942079   0.8575091   0.4127297  )
        13           Bi  tau(  13) = (   0.7458628   0.6125065   0.9757990  )
        14           Bi  tau(  14) = (   1.2458628   0.6125065   0.9757990  )
        15           Bi  tau(  15) = (   0.7425531   1.1025117   0.9757990  )
        16           Bi  tau(  16) = (   1.2425531   1.1025117   0.9757990  )
        17           V   tau(  17) = (   0.4991726   0.1225013   0.1463980  )
        18           V   tau(  18) = (   0.9991726   0.1225013   0.1463980  )
        19           V   tau(  19) = (   0.4958628   0.6125065   0.1463980  )
        20           V   tau(  20) = (   0.9958628   0.6125065   0.1463980  )
        21           V   tau(  21) = (   0.7475177   0.3675039   0.7094672  )
        22           V   tau(  22) = (   1.2475177   0.3675039   0.7094672  )
        23           V   tau(  23) = (   0.7442079   0.8575091   0.7094672  )
        24           V   tau(  24) = (   1.2442079   0.8575091   0.7094672  )
        25           V   tau(  25) = (   0.2458628   0.6125065   0.4166712  )
        26           V   tau(  26) = (   0.7458628   0.6125065   0.4166712  )
        27           V   tau(  27) = (   0.2425531   1.1025117   0.4166712  )
        28           V   tau(  28) = (   0.7425531   1.1025117   0.4166712  )
        29           V   tau(  29) = (   0.4942079   0.8575091   0.9797404  )
        30           V   tau(  30) = (   0.9942079   0.8575091   0.9797404  )
        31           V   tau(  31) = (   0.4908982   1.3475143   0.9797404  )
        32           V   tau(  32) = (   0.9908982   1.3475143   0.9797404  )
        33           O   tau(  33) = (   0.5715696   0.2487756   0.2344620  )
        34           O   tau(  34) = (   1.0715696   0.2487756   0.2344620  )
        35           O   tau(  35) = (   0.5682599   0.7387808   0.2344620  )
        36           O   tau(  36) = (   1.0682599   0.7387808   0.2344620  )
        37           O   tau(  37) = (   0.8199148   0.4937782   0.7975312  )
        38           O   tau(  38) = (   1.3199148   0.4937782   0.7975312  )
        39           O   tau(  39) = (   0.8166050   0.9837834   0.7975312  )
        40           O   tau(  40) = (   1.3166050   0.9837834   0.7975312  )
        41           O   tau(  41) = (   0.4234657   0.4862321   0.2344620  )
        42           O   tau(  42) = (   0.9234657   0.4862321   0.2344620  )
        43           O   tau(  43) = (   0.4201560   0.9762373   0.2344620  )
        44           O   tau(  44) = (   0.9201560   0.9762373   0.2344620  )
        45           O   tau(  45) = (   0.6718109   0.7312347   0.7975312  )
        46           O   tau(  46) = (   1.1718109   0.7312347   0.7975312  )
        47           O   tau(  47) = (   0.6685011   1.2212399   0.7975312  )
        48           O   tau(  48) = (   1.1685011   1.2212399   0.7975312  )
        49           O   tau(  49) = (   0.1734657   0.4862321   0.3286072  )
        50           O   tau(  50) = (   0.6734657   0.4862321   0.3286072  )
        51           O   tau(  51) = (   0.1701560   0.9762373   0.3286072  )
        52           O   tau(  52) = (   0.6701560   0.9762373   0.3286072  )
        53           O   tau(  53) = (   0.4218109   0.7312347   0.8916764  )
        54           O   tau(  54) = (   0.9218109   0.7312347   0.8916764  )
        55           O   tau(  55) = (   0.4185011   1.2212399   0.8916764  )
        56           O   tau(  56) = (   0.9185011   1.2212399   0.8916764  )
        57           O   tau(  57) = (   0.3215696   0.2487756   0.3286072  )
        58           O   tau(  58) = (   0.8215696   0.2487756   0.3286072  )
        59           O   tau(  59) = (   0.3182599   0.7387808   0.3286072  )
        60           O   tau(  60) = (   0.8182599   0.7387808   0.3286072  )
        61           O   tau(  61) = (   0.5699148   0.4937782   0.8916764  )
        62           O   tau(  62) = (   1.0699148   0.4937782   0.8916764  )
        63           O   tau(  63) = (   0.5666050   0.9837834   0.8916764  )
        64           O   tau(  64) = (   1.0666050   0.9837834   0.8916764  )
        65           O   tau(  65) = (   0.6247103   0.6766972   0.5059740  )
        66           O   tau(  66) = (   1.1257292   0.6766972   0.5059740  )
        67           O   tau(  67) = (   0.6224195   1.1667024   0.5059740  )
        68           O   tau(  68) = (   1.1224195   1.1667024   0.5059740  )
        69           O   tau(  69) = (   0.8740744   0.9216998   1.0690432  )
        70           O   tau(  70) = (   1.3740744   0.9216998   1.0690432  )
        71           O   tau(  71) = (   0.8707646   1.4117049   1.0690432  )
        72           O   tau(  72) = (   1.3707646   1.4117049   1.0690432  )
        73           O   tau(  73) = (   0.3659964   0.5483158   0.5059740  )
        74           O   tau(  74) = (   0.8659964   0.5483158   0.5059740  )
        75           O   tau(  75) = (   0.3626866   1.0383210   0.5059740  )
        76           O   tau(  76) = (   0.8626866   1.0383210   0.5059740  )
        77           O   tau(  77) = (   0.6143415   0.7933184   1.0690432  )
        78           O   tau(  78) = (   1.1143415   0.7933184   1.0690432  )
        79           O   tau(  79) = (   0.6110318   1.2833236   1.0690432  )
        80           O   tau(  80) = (   1.1110318   1.2833236   1.0690432  )
        81           O   tau(  81) = (   0.1193061   0.0583106   0.0570952  )
        82           O   tau(  82) = (   0.6193061   0.0583106   0.0570952  )
        83           O   tau(  83) = (   0.1159964   0.5483158   0.0570952  )
        84           O   tau(  84) = (   0.6159964   0.5483158   0.0570952  )
        85           O   tau(  85) = (   0.3676513   0.3033132   0.6201644  )
        86           O   tau(  86) = (   0.8676513   0.3033132   0.6201644  )
        87           O   tau(  87) = (   0.3643415   0.7933184   0.6201644  )
        88           O   tau(  88) = (   0.8643415   0.7933184   0.6201644  )
        89           O   tau(  89) = (   0.3790390   0.1866920   0.0570952  )
        90           O   tau(  90) = (   0.8790390   0.1866920   0.0570952  )
        91           O   tau(  91) = (   0.3757292   0.6766972   0.0570952  )
        92           O   tau(  92) = (   0.8757292   0.6766972   0.0570952  )
        93           O   tau(  93) = (   0.6273841   0.4316946   0.6201644  )
        94           O   tau(  94) = (   1.1273841   0.4316946   0.6201644  )
        95           O   tau(  95) = (   0.6240744   0.9216998   0.6201644  )
        96           O   tau(  96) = (   1.1240744   0.9216998   0.6201644  )

     number of k points=     4
                       cart. coord. in units 2pi/alat
        k(    1) = (   0.2500000   0.2567880   0.0000000), wk =   0.5000000
        k(    2) = (   0.2500000   0.2567880  -0.4439951), wk =   0.5000000
        k(    3) = (   0.2500000  -0.2534107   0.2219976), wk =   0.5000000
        k(    4) = (  -0.2500000   0.2534107   0.2219976), wk =   0.5000000

     Dense  grid:   660405 G-vectors     FFT dimensions: ( 108, 108, 144)

     Estimated max dynamical RAM per process >       2.39 GB

     Estimated total dynamical RAM >       9.55 GB

     Initial potential from superposition of free atoms

     starting charge  703.96725, renormalised to  704.00000
     Starting wfc are  544 randomized atomic wfcs

     total cpu time spent up to now is      110.3 secs

     Self-consistent Calculation

     iteration #  1     ecut=    70.00 Ry     beta= 0.70
     Davidson diagonalization with overlap
     ethr =  1.00E-02,  avg # of iterations =  1.0

     total cpu time spent up to now is      270.5 secs

     total energy              =   -4949.30140215 Ry
     Harris-Foulkes estimate   =   -4981.29959712 Ry
     estimated scf accuracy    <      40.95280931 Ry

     iteration #  2     ecut=    70.00 Ry     beta= 0.70
     Davidson diagonalization with overlap
     ethr =  5.82E-03,  avg # of iterations =  4.0

     total cpu time spent up to now is      564.1 secs

     total energy              =   -4901.61832028 Ry
     Harris-Foulkes estimate   =   -5036.23363602 Ry
     estimated scf accuracy    <     571.21128932 Ry

     iteration #  3     ecut=    70.00 Ry     beta= 0.70
     Davidson diagonalization with overlap
     ethr =  5.82E-03,  avg # of iterations =  6.2

     total cpu time spent up to now is      870.1 secs

     total energy              =   -4970.00146302 Ry
     Harris-Foulkes estimate   =   -4977.38074017 Ry
     estimated scf accuracy    <      23.90316533 Ry

     iteration #  4     ecut=    70.00 Ry     beta= 0.70
     Davidson diagonalization with overlap
     ethr =  3.40E-03,  avg # of iterations =  2.0

     total cpu time spent up to now is     1068.2 secs

     total energy              =   -4972.11093290 Ry
     Harris-Foulkes estimate   =   -4972.74437482 Ry
     estimated scf accuracy    <       4.39845982 Ry

     iteration #  5     ecut=    70.00 Ry     beta= 0.70
     Davidson diagonalization with overlap
     ethr =  6.25E-04,  avg # of iterations =  2.0

     total cpu time spent up to now is     1233.7 secs

     total energy              =   -4971.79178800 Ry
     Harris-Foulkes estimate   =   -4972.31573125 Ry
     estimated scf accuracy    <       2.08739205 Ry

     iteration #  6     ecut=    70.00 Ry     beta= 0.70
     Davidson diagonalization with overlap
     ethr =  2.97E-04,  avg # of iterations =  3.0

     total cpu time spent up to now is     1440.0 secs

     total energy              =   -4972.08234021 Ry
     Harris-Foulkes estimate   =   -4972.11842717 Ry
     estimated scf accuracy    <       0.06338158 Ry

     iteration #  7     ecut=    70.00 Ry     beta= 0.70
     Davidson diagonalization with overlap
     ethr =  9.00E-06,  avg # of iterations =  4.0

     total cpu time spent up to now is     1702.5 secs

     total energy              =   -4972.08715324 Ry
     Harris-Foulkes estimate   =   -4972.12872364 Ry
     estimated scf accuracy    <       0.12211256 Ry

     iteration #  8     ecut=    70.00 Ry     beta= 0.70
     Davidson diagonalization with overlap
     ethr =  9.00E-06,  avg # of iterations =  3.0

     total cpu time spent up to now is     1946.0 secs

     total energy              =   -4972.10102402 Ry
     Harris-Foulkes estimate   =   -4972.11712096 Ry
     estimated scf accuracy    <       0.06372975 Ry

     iteration #  9     ecut=    70.00 Ry     beta= 0.70
     Davidson diagonalization with overlap
     ethr =  9.00E-06,  avg # of iterations =  3.0

     total cpu time spent up to now is     2172.1 secs

     total energy              =   -4972.10865701 Ry
     Harris-Foulkes estimate   =   -4972.11405290 Ry
     estimated scf accuracy    <       0.02926427 Ry

     iteration # 10     ecut=    70.00 Ry     beta= 0.70
     Davidson diagonalization with overlap
     ethr =  4.16E-06,  avg # of iterations =  2.0

     total cpu time spent up to now is     2342.9 secs

     total energy              =   -4972.10801045 Ry
     Harris-Foulkes estimate   =   -4972.11041620 Ry
     estimated scf accuracy    <       0.00836894 Ry

     iteration # 11     ecut=    70.00 Ry     beta= 0.70
     Davidson diagonalization with overlap
     ethr =  1.19E-06,  avg # of iterations =  3.0

     total cpu time spent up to now is     2554.4 secs

     total energy              =   -4972.10943747 Ry
     Harris-Foulkes estimate   =   -4972.10949852 Ry
     estimated scf accuracy    <       0.00023697 Ry

     iteration # 12     ecut=    70.00 Ry     beta= 0.70
     Davidson diagonalization with overlap
     ethr =  3.37E-08,  avg # of iterations =  3.0

     total cpu time spent up to now is     2793.4 secs

     total energy              =   -4972.10945526 Ry
     Harris-Foulkes estimate   =   -4972.10952553 Ry
     estimated scf accuracy    <       0.00028248 Ry

     iteration # 13     ecut=    70.00 Ry     beta= 0.70
     Davidson diagonalization with overlap
     ethr =  3.37E-08,  avg # of iterations =  3.0

     total cpu time spent up to now is     3002.6 secs

     total energy              =   -4972.10947676 Ry
     Harris-Foulkes estimate   =   -4972.10948953 Ry
     estimated scf accuracy    <       0.00004613 Ry

     iteration # 14     ecut=    70.00 Ry     beta= 0.70
     Davidson diagonalization with overlap
     ethr =  6.55E-09,  avg # of iterations =  3.0

     total cpu time spent up to now is     3216.8 secs

     total energy              =   -4972.10948249 Ry
     Harris-Foulkes estimate   =   -4972.10948424 Ry
     estimated scf accuracy    <       0.00000509 Ry

     iteration # 15     ecut=    70.00 Ry     beta= 0.70
     Davidson diagonalization with overlap
     ethr =  7.23E-10,  avg # of iterations =  3.0

     total cpu time spent up to now is     3463.3 secs

     total energy              =   -4972.10948284 Ry
     Harris-Foulkes estimate   =   -4972.10948446 Ry
     estimated scf accuracy    <       0.00000571 Ry

     iteration # 16     ecut=    70.00 Ry     beta= 0.70
     Davidson diagonalization with overlap
     ethr =  7.23E-10,  avg # of iterations =  3.0

     total cpu time spent up to now is     3680.6 secs

     total energy              =   -4972.10948359 Ry
     Harris-Foulkes estimate   =   -4972.10948371 Ry
     estimated scf accuracy    <       0.00000028 Ry

     iteration # 17     ecut=    70.00 Ry     beta= 0.70
     Davidson diagonalization with overlap
     ethr =  3.97E-11,  avg # of iterations =  3.2

     total cpu time spent up to now is     3934.5 secs

     total energy              =   -4972.10948362 Ry
     Harris-Foulkes estimate   =   -4972.10948374 Ry
     estimated scf accuracy    <       0.00000046 Ry

     iteration # 18     ecut=    70.00 Ry     beta= 0.70
     Davidson diagonalization with overlap
     ethr =  3.97E-11,  avg # of iterations =  3.0

     total cpu time spent up to now is     4167.4 secs

     total energy              =   -4972.10948367 Ry
     Harris-Foulkes estimate   =   -4972.10948369 Ry
     estimated scf accuracy    <       0.00000008 Ry

     iteration # 19     ecut=    70.00 Ry     beta= 0.70
     Davidson diagonalization with overlap
     ethr =  1.07E-11,  avg # of iterations =  3.0

     total cpu time spent up to now is     4391.3 secs

     total energy              =   -4972.10948368 Ry
     Harris-Foulkes estimate   =   -4972.10948368 Ry
     estimated scf accuracy    <       0.00000001 Ry

     iteration # 20     ecut=    70.00 Ry     beta= 0.70
     Davidson diagonalization with overlap
     ethr =  1.48E-12,  avg # of iterations =  3.0

     total cpu time spent up to now is     4633.0 secs

     total energy              =   -4972.10948368 Ry
     Harris-Foulkes estimate   =   -4972.10948368 Ry
     estimated scf accuracy    <       0.00000001 Ry

     iteration # 21     ecut=    70.00 Ry     beta= 0.70
     Davidson diagonalization with overlap
     ethr =  1.44E-12,  avg # of iterations =  3.0

     total cpu time spent up to now is     4858.8 secs

     total energy              =   -4972.10948368 Ry
     Harris-Foulkes estimate   =   -4972.10948368 Ry
     estimated scf accuracy    <          2.5E-09 Ry

     iteration # 22     ecut=    70.00 Ry     beta= 0.70
     Davidson diagonalization with overlap
     ethr =  3.49E-13,  avg # of iterations =  3.0

     total cpu time spent up to now is     5086.6 secs

     total energy              =   -4972.10948368 Ry
     Harris-Foulkes estimate   =   -4972.10948368 Ry
     estimated scf accuracy    <          1.0E-09 Ry

     iteration # 23     ecut=    70.00 Ry     beta= 0.70
     Davidson diagonalization with overlap
     ethr =  1.43E-13,  avg # of iterations =  3.0

     total cpu time spent up to now is     5300.1 secs

     End of self-consistent calculation

          k = 0.2500 0.2568 0.0000 ( 82568 PWs)   bands (ev):

   -14.4878 -14.4868 -14.4862 -14.4851 -14.4836 -14.4831 -14.4818 -14.4808
   -14.4775 -14.4692 -14.4678 -14.4670 -14.4633 -14.4630 -14.4579 -14.4570
   -14.4515 -14.4508 -14.4479 -14.4362 -14.4335 -14.4308 -14.4299 -14.4249
   -14.4231 -14.4127 -14.4118 -14.4061 -14.4055 -14.4046 -14.4040 -14.4023
   -14.4019 -14.3987 -14.3981 -14.3976 -14.3968 -14.3963 -14.3948 -14.3944
   -14.3939 -14.3926 -14.3921 -14.3918 -14.3912 -14.3908 -14.3895 -14.3886
   -14.3865 -14.3851 -14.3838 -14.3824 -14.3808 -14.3803 -14.3795 -14.3789
   -14.3781 -14.3737 -14.3731 -14.3696 -14.3677 -14.3669 -14.3636 -14.3616
   -14.3598 -14.3592 -14.3585 -14.3576 -14.3560 -14.3529 -14.3525 -14.3509
   -14.3501 -14.3482 -14.3472 -14.3457 -14.3443 -14.3414 -14.3405 -14.3358
   -10.4961 -10.2966 -10.1672 -10.1654 -10.1213 -10.1196  -9.9303  -9.8059
    -9.6775  -9.6058  -9.6040  -9.6003  -9.5991  -9.5454  -9.4701  -9.3941
    -9.3599  -9.3210  -9.3208  -9.3142  -9.3022  -9.2800  -9.2792  -9.2527
    -9.2432  -9.1716  -9.1489  -9.1152  -9.1134  -9.0844  -9.0834  -9.0661
    -9.0636  -9.0423  -9.0402  -9.0393  -8.9743  -8.9735  -8.9531  -8.9450
    -8.9356  -8.9338  -8.9241  -8.8990  -8.8928  -8.8911  -8.8885  -8.8634
    -8.8261  -8.8244  -8.8236  -8.8217  -8.8204  -8.8048  -8.7840  -8.7829
    -8.7759  -8.7531  -8.7138  -8.7043  -8.7031  -8.6861  -8.6848  -8.6582
    -2.2087  -2.0743  -2.0732  -1.9652  -1.9020  -1.9011  -1.8934  -1.7946
    -1.5980  -1.5525  -1.5512  -1.5037  -1.4727  -1.3591  -1.3579  -1.3049
     2.4199   2.4646   2.4981   2.4994   2.5545   2.5546   2.6751   2.7356
     2.7360   2.7408   2.7501   2.7522   2.7645   2.7707   2.7757   2.8355
     2.8357   2.9409   2.9523   2.9760   2.9763   3.0046   3.1132   3.1803
     3.1812   3.2212   3.2517   3.2523   3.2807   3.3619   3.3864   3.3869
     3.4148   3.4221   3.4227   3.5347   3.5352   3.6272   3.6428   3.7116
     3.7123   3.7686   3.7770   3.7912   3.8970   3.8982   3.8992   3.9701
     3.9951   4.0196   4.0278   4.0424   4.0427   4.0435   4.0444   4.1466
     4.1868   4.2096   4.2103   4.2360   4.2397   4.2403   4.2454   4.2679
     4.2851   4.2857   4.3000   4.3517   4.3655   4.3699   4.3709   4.3765
     4.3827   4.3835   4.4055   4.4092   4.4418   4.4866   4.4934   4.4942
     4.5362   4.5380   4.6138   4.6347   4.6352   4.6447   4.6452   4.6731
     4.6740   4.6801   4.6970   4.7008   4.7145   4.7225   4.7672   4.7701
     4.7708   4.8418   4.8614   4.8618   4.9193   4.9339   5.0018   5.0078
     5.0087   5.0561   5.0569   5.0929   5.0938   5.1132   5.1231   5.1237
     5.1457   5.1460   5.2147   5.2740   5.2866   5.2872   5.2880   5.3619
     5.3690   5.3696   5.3937   5.3978   5.4242   5.5203   5.5209   5.5460
     5.6499   5.7460   5.7468   5.7517   5.8377   5.8540   5.8545   5.8702
     5.8913   5.9897   5.9930   5.9937   6.0048   6.0647   6.0652   6.1336
     6.1357   6.1556   6.2485   6.2710   6.2721   6.2741   6.2748   6.2760
     6.2854   6.2858   6.2959   6.4114   6.4126   6.4137   6.4198   6.4239
     6.4637   6.4650   6.4737   6.4748   6.4930   6.5828   6.5902   6.5910
     6.6966   6.6983   6.7259   6.7916   6.7919   6.7956   6.8128   6.8671
     6.8742   6.8788   6.8798   6.9330   6.9418   6.9470   6.9478   6.9906
     6.9911   7.0646   7.1492   7.2890   7.2899   7.3693   7.3705   7.4779

          k = 0.2500 0.2568-0.4440 ( 82488 PWs)   bands (ev):

   -14.4879 -14.4866 -14.4862 -14.4853 -14.4840 -14.4832 -14.4824 -14.4781
   -14.4753 -14.4729 -14.4723 -14.4605 -14.4579 -14.4565 -14.4561 -14.4558
   -14.4531 -14.4522 -14.4515 -14.4491 -14.4350 -14.4316 -14.4309 -14.4228
   -14.4203 -14.4160 -14.4153 -14.4136 -14.4075 -14.4056 -14.4036 -14.4028
   -14.3996 -14.3992 -14.3981 -14.3976 -14.3972 -14.3963 -14.3957 -14.3952
   -14.3937 -14.3924 -14.3920 -14.3912 -14.3897 -14.3885 -14.3877 -14.3855
   -14.3844 -14.3834 -14.3829 -14.3818 -14.3790 -14.3756 -14.3747 -14.3725
   -14.3715 -14.3711 -14.3706 -14.3703 -14.3697 -14.3688 -14.3676 -14.3671
   -14.3624 -14.3610 -14.3607 -14.3563 -14.3543 -14.3535 -14.3528 -14.3518
   -14.3512 -14.3493 -14.3478 -14.3473 -14.3461 -14.3413 -14.3404 -14.3353
   -10.4132 -10.4116 -10.2244 -10.1949 -10.0989 -10.0193  -9.8752  -9.8735
    -9.6769  -9.6005  -9.5596  -9.5150  -9.5098  -9.5079  -9.4909  -9.4903
    -9.4418  -9.4396  -9.3938  -9.3923  -9.2306  -9.2257  -9.2242  -9.1955
    -9.1942  -9.1697  -9.1692  -9.1516  -9.1415  -9.1388  -9.1238  -9.0864
    -9.0669  -9.0657  -9.0501  -8.9816  -8.9746  -8.9644  -8.9102  -8.9078
    -8.9000  -8.8991  -8.8946  -8.8893  -8.8881  -8.8808  -8.8756  -8.8749
    -8.8525  -8.8400  -8.8310  -8.8300  -8.8161  -8.8150  -8.8003  -8.7861
    -8.7848  -8.7643  -8.7188  -8.6970  -8.6918  -8.6849  -8.6838  -8.6815
    -2.1224  -2.0993  -2.0984  -2.0224  -1.9818  -1.8516  -1.8505  -1.7727
    -1.6575  -1.5444  -1.5431  -1.4953  -1.3900  -1.3775  -1.3763  -1.3302
     2.4966   2.4999   2.5659   2.5687   2.5700   2.5718   2.6231   2.6613
     2.6619   2.7256   2.7262   2.7508   2.7523   2.7767   2.8684   2.8699
     2.8704   2.8740   2.8782   2.8794   2.9147   3.0340   3.0926   3.1340
     3.1402   3.1408   3.2569   3.2599   3.2719   3.2857   3.2980   3.2984
     3.3728   3.4352   3.4612   3.4616   3.6031   3.6037   3.6714   3.7712
     3.7984   3.8284   3.9031   3.9042   3.9861   3.9871   4.0145   4.0361
     4.0477   4.0668   4.0841   4.0945   4.1178   4.1182   4.1497   4.1701
     4.1713   4.2037   4.2225   4.2227   4.2240   4.2372   4.2646   4.2855
     4.2861   4.2973   4.2985   4.2991   4.3195   4.3394   4.3401   4.3420
     4.4064   4.4308   4.4318   4.4340   4.4730   4.4736   4.4752   4.4784
     4.4818   4.4822   4.5268   4.5331   4.5517   4.5522   4.6025   4.6250
     4.6258   4.6413   4.6864   4.6872   4.7300   4.7925   4.8225   4.8228
     4.8320   4.8329   4.8647   4.8781   4.8791   4.8858   4.8869   4.8976
     4.8983   4.9912   5.0364   5.0369   5.0929   5.1060   5.1165   5.1531
     5.1653   5.1656   5.2047   5.2259   5.2457   5.2464   5.2552   5.2756
     5.3080   5.3365   5.3374   5.4456   5.4712   5.5704   5.5712   5.6569
     5.7132   5.7960   5.8001   5.8010   5.8118   5.8863   5.8872   5.9157
     5.9800   6.0126   6.0303   6.0314   6.0564   6.0658   6.0679   6.0693
     6.1157   6.1608   6.1699   6.1704   6.1881   6.2018   6.2026   6.2750
     6.3436   6.3550   6.3564   6.4022   6.4031   6.4092   6.4914   6.4922
     6.5018   6.5132   6.5232   6.5269   6.5768   6.5883   6.6171   6.6367
     6.6373   6.6578   6.6855   6.6862   6.7877   6.7886   6.8013   6.8025
     6.8256   6.8805   6.8814   6.9347   6.9357   6.9558   6.9561   6.9718
     7.0241   7.0311   7.0894   7.1806   7.3441   7.3450   7.4404   7.5549

          k = 0.2500-0.2534 0.2220 ( 82555 PWs)   bands (ev):

   -14.4881 -14.4870 -14.4859 -14.4854 -14.4846 -14.4839 -14.4821 -14.4775
   -14.4751 -14.4724 -14.4706 -14.4632 -14.4608 -14.4597 -14.4587 -14.4568
   -14.4539 -14.4506 -14.4472 -14.4423 -14.4354 -14.4306 -14.4285 -14.4253
   -14.4220 -14.4150 -14.4118 -14.4090 -14.4075 -14.4066 -14.4051 -14.4034
   -14.3998 -14.3986 -14.3979 -14.3970 -14.3965 -14.3959 -14.3949 -14.3941
   -14.3937 -14.3925 -14.3917 -14.3910 -14.3904 -14.3896 -14.3886 -14.3874
   -14.3863 -14.3852 -14.3837 -14.3826 -14.3820 -14.3789 -14.3763 -14.3739
   -14.3735 -14.3726 -14.3712 -14.3707 -14.3693 -14.3679 -14.3655 -14.3644
   -14.3612 -14.3605 -14.3570 -14.3563 -14.3558 -14.3549 -14.3521 -14.3512
   -14.3506 -14.3493 -14.3475 -14.3469 -14.3452 -14.3407 -14.3398 -14.3362
   -10.4782 -10.3430 -10.2013 -10.1571 -10.1066 -10.0294  -9.9446  -9.8713
    -9.6909  -9.6129  -9.6080  -9.5889  -9.5735  -9.4719  -9.4144  -9.4084
    -9.4064  -9.3901  -9.3829  -9.3606  -9.2473  -9.2336  -9.2227  -9.2016
    -9.1969  -9.1785  -9.1657  -9.1337  -9.1213  -9.1192  -9.1116  -9.1102
    -9.0629  -9.0576  -9.0564  -9.0231  -9.0219  -9.0100  -8.9367  -8.9358
    -8.9313  -8.9150  -8.9136  -8.8892  -8.8861  -8.8854  -8.8496  -8.8478
    -8.8418  -8.8395  -8.8077  -8.7956  -8.7947  -8.7844  -8.7825  -8.7719
    -8.7678  -8.7628  -8.7580  -8.7322  -8.7096  -8.7041  -8.6757  -8.6487
    -2.1760  -2.1130  -2.0311  -2.0118  -1.9599  -1.8804  -1.8247  -1.8180
    -1.6237  -1.5606  -1.5192  -1.5104  -1.4288  -1.3966  -1.3350  -1.3232
     2.4310   2.4818   2.5236   2.5564   2.5782   2.5802   2.5824   2.6383
     2.6914   2.7006   2.7260   2.7413   2.7829   2.7903   2.8050   2.8412
     2.8419   2.8597   3.0161   3.0333   3.0569   3.0832   3.1171   3.1267
     3.1424   3.1921   3.1946   3.2117   3.2341   3.2543   3.3123   3.3725
     3.5134   3.5263   3.5407   3.5502   3.5763   3.6016   3.6514   3.6568
     3.6883   3.6973   3.8612   3.8736   3.9132   3.9341   3.9454   3.9538
     3.9844   3.9872   4.0125   4.0478   4.0986   4.1149   4.1281   4.1412
     4.1490   4.1960   4.2024   4.2060   4.2125   4.2316   4.2343   4.2419
     4.2495   4.2530   4.2941   4.3081   4.3420   4.3547   4.3574   4.3831
     4.4245   4.4271   4.4332   4.4450   4.4531   4.4690   4.4967   4.5297
     4.5388   4.5405   4.5413   4.5648   4.5723   4.6687   4.6698   4.6826
     4.6889   4.7125   4.7350   4.7393   4.7510   4.7530   4.7574   4.7635
     4.7919   4.7983   4.8719   4.8751   4.8777   4.9043   4.9335   4.9664
     4.9772   4.9991   5.0319   5.0503   5.0934   5.0958   5.1238   5.1778
     5.1855   5.2032   5.2302   5.2568   5.2665   5.2691   5.2963   5.3007
     5.3749   5.3763   5.4494   5.4663   5.5037   5.5410   5.5450   5.6072
     5.6761   5.6880   5.6925   5.7140   5.7219   5.7488   5.8086   5.8544
     5.8897   5.9405   5.9609   5.9761   5.9888   6.0378   6.0483   6.1438
     6.1512   6.2004   6.2275   6.2534   6.2728   6.2749   6.2798   6.3120
     6.3353   6.3534   6.3588   6.3786   6.4241   6.4329   6.4344   6.4787
     6.4797   6.5012   6.5546   6.5677   6.6151   6.6216   6.6625   6.6653
     6.6909   6.6915   6.6942   6.7221   6.7271   6.7319   6.7477   6.7900
     6.8313   6.8698   6.8877   6.9220   6.9377   6.9421   6.9565   6.9799
     6.9817   7.0801   7.1208   7.2388   7.2883   7.3058   7.4635   7.4691

          k =-0.2500 0.2534 0.2220 ( 82555 PWs)   bands (ev):

   -14.4881 -14.4871 -14.4858 -14.4852 -14.4849 -14.4839 -14.4821 -14.4774
   -14.4750 -14.4728 -14.4703 -14.4632 -14.4611 -14.4592 -14.4590 -14.4565
   -14.4541 -14.4504 -14.4475 -14.4422 -14.4354 -14.4309 -14.4282 -14.4255
   -14.4220 -14.4148 -14.4120 -14.4087 -14.4075 -14.4069 -14.4049 -14.4036
   -14.3997 -14.3985 -14.3983 -14.3970 -14.3965 -14.3959 -14.3947 -14.3938
   -14.3937 -14.3925 -14.3918 -14.3912 -14.3903 -14.3897 -14.3886 -14.3879
   -14.3865 -14.3843 -14.3836 -14.3825 -14.3823 -14.3785 -14.3760 -14.3744
   -14.3737 -14.3726 -14.3709 -14.3703 -14.3695 -14.3677 -14.3654 -14.3647
   -14.3616 -14.3605 -14.3567 -14.3563 -14.3562 -14.3547 -14.3523 -14.3515
   -14.3502 -14.3486 -14.3478 -14.3470 -14.3452 -14.3409 -14.3395 -14.3362
   -10.4782 -10.3430 -10.2013 -10.1571 -10.1066 -10.0294  -9.9446  -9.8714
    -9.6908  -9.6129  -9.6078  -9.5890  -9.5737  -9.4720  -9.4144  -9.4083
    -9.4067  -9.3903  -9.3830  -9.3604  -9.2473  -9.2335  -9.2222  -9.2011
    -9.1969  -9.1785  -9.1657  -9.1337  -9.1215  -9.1192  -9.1114  -9.1103
    -9.0628  -9.0581  -9.0572  -9.0237  -9.0214  -9.0098  -8.9363  -8.9351
    -8.9314  -8.9148  -8.9135  -8.8896  -8.8864  -8.8855  -8.8494  -8.8478
    -8.8424  -8.8395  -8.8073  -8.7962  -8.7946  -8.7841  -8.7821  -8.7716
    -8.7682  -8.7628  -8.7584  -8.7318  -8.7096  -8.7041  -8.6756  -8.6487
    -2.1762  -2.1133  -2.0308  -2.0116  -1.9598  -1.8802  -1.8247  -1.8185
    -1.6235  -1.5602  -1.5194  -1.5106  -1.4290  -1.3969  -1.3348  -1.3231
     2.4310   2.4821   2.5238   2.5563   2.5784   2.5803   2.5820   2.6383
     2.6910   2.7005   2.7256   2.7410   2.7831   2.7905   2.8052   2.8412
     2.8421   2.8596   3.0161   3.0333   3.0571   3.0832   3.1170   3.1267
     3.1430   3.1920   3.1945   3.2122   3.2339   3.2542   3.3124   3.3724
     3.5137   3.5260   3.5417   3.5499   3.5759   3.6016   3.6519   3.6565
     3.6882   3.6978   3.8611   3.8742   3.9120   3.9335   3.9455   3.9530
     3.9845   3.9872   4.0118   4.0481   4.0985   4.1148   4.1289   4.1412
     4.1484   4.1954   4.2028   4.2053   4.2121   4.2319   4.2339   4.2427
     4.2499   4.2529   4.2946   4.3078   4.3414   4.3551   4.3578   4.3829
     4.4246   4.4269   4.4336   4.4448   4.4535   4.4688   4.4968   4.5304
     4.5390   4.5409   4.5413   4.5650   4.5730   4.6687   4.6695   4.6825
     4.6891   4.7127   4.7346   4.7379   4.7504   4.7534   4.7572   4.7647
     4.7922   4.7977   4.8718   4.8751   4.8787   4.9042   4.9324   4.9650
     4.9781   4.9992   5.0326   5.0501   5.0937   5.0957   5.1240   5.1781
     5.1854   5.2028   5.2302   5.2572   5.2666   5.2687   5.2964   5.3007
     5.3743   5.3761   5.4493   5.4666   5.5047   5.5409   5.5442   5.6075
     5.6761   5.6876   5.6930   5.7142   5.7217   5.7489   5.8084   5.8550
     5.8892   5.9406   5.9615   5.9763   5.9883   6.0378   6.0478   6.1437
     6.1515   6.2000   6.2274   6.2535   6.2732   6.2749   6.2802   6.3117
     6.3355   6.3536   6.3583   6.3784   6.4236   6.4330   6.4337   6.4788
     6.4795   6.5011   6.5548   6.5681   6.6153   6.6215   6.6627   6.6650
     6.6905   6.6916   6.6940   6.7224   6.7264   6.7323   6.7479   6.7904
     6.8310   6.8698   6.8883   6.9221   6.9376   6.9418   6.9568   6.9799
     6.9825   7.0794   7.1203   7.2383   7.2888   7.3063   7.4638   7.4688

     highest occupied level (ev):     7.5549

!    total energy              =   -4972.10948368 Ry
     Harris-Foulkes estimate   =   -4972.10948368 Ry
     estimated scf accuracy    <          1.8E-10 Ry

     The total energy is the sum of the following terms:

     one-electron contribution =   -1193.11376827 Ry
     hartree contribution      =    1074.13932580 Ry
     xc contribution           =   -1297.69374761 Ry
     ewald contribution        =   -3555.44129360 Ry

     convergence has been achieved in  23 iterations

     Forces acting on atoms (cartesian axes, Ry/au):

     atom    1 type  1   force =     0.00003234   -0.00001501   -0.01386475
     atom    2 type  1   force =     0.00002722   -0.00018528   -0.01413016
     atom    3 type  1   force =     0.00012708    0.00003716   -0.01381193
     atom    4 type  1   force =    -0.00023582    0.00022432   -0.01417067
     atom    5 type  1   force =     0.00013449    0.00018752   -0.01450790
     atom    6 type  1   force =     0.00023152    0.00007120   -0.01357490
     atom    7 type  1   force =    -0.00003308   -0.00003856   -0.01388399
     atom    8 type  1   force =     0.00004019   -0.00000145   -0.01385032
     atom    9 type  1   force =    -0.00029016   -0.00001365    0.01403599
     atom   10 type  1   force =     0.00028985   -0.00031278    0.01376129
     atom   11 type  1   force =     0.00014685   -0.00057628    0.01435509
     atom   12 type  1   force =     0.00039006    0.00023759    0.01400194
     atom   13 type  1   force =    -0.00005609   -0.00000218    0.01384974
     atom   14 type  1   force =     0.00005338   -0.00001943    0.01379002
     atom   15 type  1   force =    -0.00000996    0.00000537    0.01384192
     atom   16 type  1   force =     0.00001279   -0.00000633    0.01379688
     atom   17 type  2   force =    -0.00018853   -0.00020946    0.00461484
     atom   18 type  2   force =     0.00003634   -0.00003466    0.00449238
     atom   19 type  2   force =    -0.00003701    0.00015877    0.00455904
     atom   20 type  2   force =     0.00018796   -0.00000899    0.00437904
     atom   21 type  2   force =    -0.00015015   -0.00005224    0.00462609
     atom   22 type  2   force =     0.00009150    0.00012637    0.00463672
     atom   23 type  2   force =    -0.00034249    0.00009908    0.00460464
     atom   24 type  2   force =     0.00019715   -0.00005898    0.00444467
     atom   25 type  2   force =     0.00032177   -0.00002532   -0.00446052
     atom   26 type  2   force =    -0.00567198    0.00240027   -0.00082026
     atom   27 type  2   force =     0.00026517   -0.00010058   -0.00440157
     atom   28 type  2   force =    -0.00008982   -0.00010341   -0.00453796
     atom   29 type  2   force =    -0.00004118   -0.00009421   -0.00463106
     atom   30 type  2   force =     0.00000855    0.00002096   -0.00454279
     atom   31 type  2   force =     0.00007138    0.00008869   -0.00462454
     atom   32 type  2   force =    -0.00001845    0.00000675   -0.00453676
     atom   33 type  3   force =    -0.00009357   -0.00116211    0.00023117
     atom   34 type  3   force =    -0.00018561   -0.00122195    0.00024608
     atom   35 type  3   force =    -0.00009264   -0.00132898   -0.00003752
     atom   36 type  3   force =    -0.00030022   -0.00132311    0.00019341
     atom   37 type  3   force =    -0.00014608   -0.00125890    0.00012476
     atom   38 type  3   force =    -0.00043743   -0.00151691    0.00020732
     atom   39 type  3   force =    -0.00015923   -0.00129184    0.00016900
     atom   40 type  3   force =    -0.00016116   -0.00124803    0.00019512
     atom   41 type  3   force =    -0.00028166    0.00166642    0.00024594
     atom   42 type  3   force =    -0.00040878    0.00172391    0.00032226
     atom   43 type  3   force =    -0.00038487    0.00199649   -0.00024298
     atom   44 type  3   force =    -0.00035121    0.00164812    0.00023647
     atom   45 type  3   force =    -0.00025750    0.00175827    0.00020595
     atom   46 type  3   force =    -0.00043356    0.00160669    0.00022445
     atom   47 type  3   force =    -0.00031243    0.00171600    0.00020023
     atom   48 type  3   force =    -0.00035608    0.00166277    0.00023484
     atom   49 type  3   force =     0.00008593    0.00118145   -0.00022726
     atom   50 type  3   force =     0.00105520    0.00206947    0.00016769
     atom   51 type  3   force =     0.00006036    0.00118509   -0.00016803
     atom   52 type  3   force =     0.00039294    0.00134347   -0.00021753
     atom   53 type  3   force =     0.00015864    0.00145717    0.00003207
     atom   54 type  3   force =     0.00018899    0.00125502   -0.00021539
     atom   55 type  3   force =     0.00016135    0.00125890   -0.00017101
     atom   56 type  3   force =     0.00016833    0.00128402   -0.00016694
     atom   57 type  3   force =     0.00040439   -0.00161029   -0.00021244
     atom   58 type  3   force =     0.00037448   -0.00160292   -0.00023355
     atom   59 type  3   force =     0.00025477   -0.00179424   -0.00024686
     atom   60 type  3   force =    -0.00027480   -0.00261490    0.00053883
     atom   61 type  3   force =     0.00039715   -0.00185644   -0.00000453
     atom   62 type  3   force =     0.00030676   -0.00166874   -0.00024645
     atom   63 type  3   force =     0.00035071   -0.00167871   -0.00021221
     atom   64 type  3   force =     0.00032736   -0.00170297   -0.00020297
     atom   65 type  3   force =    -0.00224154    0.00275260    0.00153380
     atom   66 type  3   force =    -0.00891511    0.00544633    0.00551588
     atom   67 type  3   force =    -0.00873386    0.00538635    0.00543769
     atom   68 type  3   force =    -0.00887923    0.00547463    0.00547924
     atom   69 type  3   force =    -0.00874238    0.00537757    0.00545798
     atom   70 type  3   force =    -0.00879905    0.00540739    0.00552983
     atom   71 type  3   force =    -0.00873931    0.00536903    0.00544364
     atom   72 type  3   force =    -0.00879631    0.00539458    0.00552115
     atom   73 type  3   force =     0.00805365   -0.00519446    0.00538009
     atom   74 type  3   force =     0.00734792   -0.00453593    0.00490008
     atom   75 type  3   force =     0.00808743   -0.00480676    0.00548565
     atom   76 type  3   force =     0.00844347   -0.00511545    0.00546946
     atom   77 type  3   force =     0.00843950   -0.00510875    0.00550128
     atom   78 type  3   force =     0.00842999   -0.00508268    0.00550349
     atom   79 type  3   force =     0.00842980   -0.00512589    0.00549616
     atom   80 type  3   force =     0.00843931   -0.00508866    0.00550351
     atom   81 type  3   force =     0.00869995   -0.00534903   -0.00542669
     atom   82 type  3   force =     0.00883861   -0.00545692   -0.00548204
     atom   83 type  3   force =     0.00868230   -0.00534719   -0.00541983
     atom   84 type  3   force =     0.00879306   -0.00541742   -0.00544072
     atom   85 type  3   force =     0.00880363   -0.00538572   -0.00551739
     atom   86 type  3   force =     0.00879042   -0.00534326   -0.00552966
     atom   87 type  3   force =     0.00852904   -0.00527019   -0.00532470
     atom   88 type  3   force =     0.00872536   -0.00559093   -0.00572590
     atom   89 type  3   force =    -0.00843650    0.00513254   -0.00549379
     atom   90 type  3   force =    -0.00843689    0.00512805   -0.00544733
     atom   91 type  3   force =    -0.00841680    0.00508763   -0.00547443
     atom   92 type  3   force =    -0.00841763    0.00509826   -0.00539841
     atom   93 type  3   force =    -0.00825321    0.00503417   -0.00548178
     atom   94 type  3   force =    -0.00851244    0.00513131   -0.00551759
     atom   95 type  3   force =    -0.00825198    0.00513863   -0.00533226
     atom   96 type  3   force =    -0.00851262    0.00512272   -0.00555654

     Total force =     0.087146     Total SCF correction =     0.000055


     Computing stress (Cartesian axis) and pressure

          total   stress  (Ry/bohr**3)                   (kbar)     P=   40.42
   0.00028924   0.00000204   0.00000093         42.55      0.30      0.14
   0.00000204   0.00026610  -0.00000046          0.30     39.14     -0.07
   0.00000093  -0.00000046   0.00026894          0.14     -0.07     39.56


     init_run     :    107.99s CPU    110.02s WALL (       1 calls)
     electrons    :   5093.57s CPU   5189.79s WALL (       1 calls)
     forces       :     34.47s CPU     35.00s WALL (       1 calls)
     stress       :    300.35s CPU    301.49s WALL (       1 calls)

     Called by init_run:
     wfcinit      :     94.36s CPU     96.07s WALL (       1 calls)
     potinit      :      4.53s CPU      4.57s WALL (       1 calls)

     Called by electrons:
     c_bands      :   4395.50s CPU   4471.25s WALL (      23 calls)
     sum_band     :    661.09s CPU    675.76s WALL (      23 calls)
     v_of_rho     :      9.26s CPU      9.52s WALL (      24 calls)
     newd         :     26.46s CPU     32.25s WALL (      24 calls)
     mix_rho      :      2.48s CPU      2.51s WALL (      23 calls)

     Called by c_bands:
     init_us_2    :     25.75s CPU     25.83s WALL (     196 calls)
     cegterg      :   4320.07s CPU   4395.75s WALL (      92 calls)

     Called by sum_band:
     sum_band:bec :      0.22s CPU      0.21s WALL (      92 calls)
     addusdens    :     37.90s CPU     44.17s WALL (      23 calls)

     Called by *egterg:
     h_psi        :   3191.54s CPU   3238.81s WALL (     374 calls)
     s_psi        :    323.99s CPU    323.91s WALL (     374 calls)
     g_psi        :      5.65s CPU      5.67s WALL (     278 calls)
     cdiaghg      :    133.50s CPU    133.55s WALL (     370 calls)

     Called by h_psi:
     h_psi:pot    :   3173.66s CPU   3220.86s WALL (     374 calls)
     h_psi:calbec :    305.62s CPU    305.84s WALL (     374 calls)
     vloc_psi     :   2542.46s CPU   2589.39s WALL (     374 calls)
     add_vuspsi   :    325.57s CPU    325.62s WALL (     374 calls)

     General routines
     calbec       :    433.38s CPU    433.67s WALL (     486 calls)
     fft          :      8.32s CPU      8.77s WALL (     336 calls)
     fftw         :   2580.06s CPU   2634.58s WALL (  220436 calls)

     Parallel routines
     fft_scatt_xy :    443.94s CPU    444.36s WALL (  220772 calls)
     fft_scatt_yz :    478.98s CPU    508.39s WALL (  220772 calls)

     PWSCF        :     1h32m CPU        1h33m WALL


   This run was terminated on:  12:48:34  28Oct2021            

=------------------------------------------------------------------------------=
   JOB DONE.
=------------------------------------------------------------------------------=
Note: The following floating-point exceptions are signalling: IEEE_DIVIDE_BY_ZERO
Note: The following floating-point exceptions are signalling: IEEE_DIVIDE_BY_ZERO IEEE_UNDERFLOW_FLAG IEEE_DENORMAL
Note: The following floating-point exceptions are signalling: IEEE_DIVIDE_BY_ZERO
Note: The following floating-point exceptions are signalling: IEEE_DIVIDE_BY_ZERO
