
     Program PWSCF v.6.2 (svn rev. 13949:13950) starts on 28Oct2021 at  3:27:32 

     This program is part of the open-source Quantum ESPRESSO suite
     for quantum simulation of materials; please cite
         "P. Giannozzi et al., J. Phys.:Condens. Matter 21 395502 (2009);
         "P. Giannozzi et al., J. Phys.:Condens. Matter 29 465901 (2017);
          URL http://www.quantum-espresso.org", 
     in publications or presentations arising from this work. More details at
     http://www.quantum-espresso.org/quote

     Parallel version (MPI), running on     4 processors

     MPI processes distributed on     1 nodes
     R & G space division:  proc/nbgrp/npool/nimage =       4
     Reading input from headeradd_supercell-009.in

     Current dimensions of program PWSCF are:
     Max number of different atomic species (ntypx) = 10
     Max number of k-points (npk) =  40000
     Max angular momentum in pseudopotentials (lmaxx) =  3
     Message from routine iosys:
     minimal I/O required, wf_collect reset to FALSE
               file Bi.pbe-dn-rrkjus_psl.1.0.0.UPF: wavefunction(s)  5D renormalized
               file O.pbe-rrkjus.UPF: wavefunction(s)  2S renormalized

     Subspace diagonalization in iterative solution of the eigenvalue problem:
     a serial algorithm will be used


     Parallelization info
     --------------------
     sticks:   dense  smooth     PW     G-vecs:    dense   smooth      PW
     Min        2104    2104    550               165101   165101   22036
     Max        2105    2105    551               165102   165102   22038
     Sum        8417    8417   2201               660405   660405   88147



     bravais-lattice index     =            0
     lattice parameter (alat)  =      19.6286  a.u.
     unit-cell volume          =    8346.2129 (a.u.)^3
     number of atoms/cell      =           96
     number of atomic types    =            3
     number of electrons       =       704.00
     number of Kohn-Sham states=          352
     kinetic-energy cutoff     =      70.0000  Ry
     charge density cutoff     =     280.0000  Ry
     convergence threshold     =      1.0E-09
     mixing beta               =       0.7000
     number of iterations used =            8  plain     mixing
     Exchange-correlation      =  SLA  PW   PBE  PBE ( 1  4  3  4 0 0)

     celldm(1)=  19.628585  celldm(2)=   0.000000  celldm(3)=   0.000000
     celldm(4)=   0.000000  celldm(5)=   0.000000  celldm(6)=   0.000000

     crystal axes: (cart. coord. in units of alat)
               a(1) = (   1.000000   0.000000   0.000000 )  
               a(2) = (  -0.006620   0.980010   0.000000 )  
               a(3) = (   0.496690   0.490005   1.126138 )  

     reciprocal axes: (cart. coord. in units 2 pi/alat)
               b(1) = (  1.000000  0.006755 -0.443995 )  
               b(2) = (  0.000000  1.020397 -0.443995 )  
               b(3) = (  0.000000 -0.000000  0.887990 )  


     PseudoPot. # 1 for Bi read from file:
     /home/uezono/pseudo/Bi.pbe-dn-rrkjus_psl.1.0.0.UPF
     MD5 check sum: f9abe7488ae443f53c935a63d0032572
     Pseudo is Ultrasoft + core correction, Zval = 15.0
     Generated using "atomic" code by A. Dal Corso  v.6.2.2
     Using radial grid of 1283 points,  6 beta functions with: 
                l(1) =   0
                l(2) =   0
                l(3) =   1
                l(4) =   1
                l(5) =   2
                l(6) =   2
     Q(r) pseudized with 0 coefficients 


     PseudoPot. # 2 for V  read from file:
     /home/uezono/pseudo/V.pbe-n-van.UPF
     MD5 check sum: ff5646be6093ca757d9525862f4bfff1
     Pseudo is Ultrasoft + core correction, Zval =  5.0
     Generated by new atomic code, or converted to UPF format
     Using radial grid of  853 points,  6 beta functions with: 
                l(1) =   0
                l(2) =   0
                l(3) =   1
                l(4) =   1
                l(5) =   2
                l(6) =   2
     Q(r) pseudized with  8 coefficients,  rinner =    1.000   1.000   1.000
                                                       1.000   1.000

     PseudoPot. # 3 for O  read from file:
     /home/uezono/pseudo/O.pbe-rrkjus.UPF
     MD5 check sum: fadcf19ee70a498d3030e2e79cf929a4
     Pseudo is Ultrasoft, Zval =  6.0
     Generated by new atomic code, or converted to UPF format
     Using radial grid of 1269 points,  4 beta functions with: 
                l(1) =   0
                l(2) =   0
                l(3) =   1
                l(4) =   1
     Q(r) pseudized with 0 coefficients 


     atomic species   valence    mass     pseudopotential
        Bi            15.00   208.98040     Bi( 1.00)
        V              5.00    50.94150     V ( 1.00)
        O              6.00    15.99940     O ( 1.00)

     No symmetry found



   Cartesian axes

     site n.     atom                  positions (alat units)
         1           Bi  tau(   1) = (   0.2475177   0.3675039   0.1503395  )
         2           Bi  tau(   2) = (   0.7475177   0.3675039   0.1503395  )
         3           Bi  tau(   3) = (   0.2442079   0.8575091   0.1503395  )
         4           Bi  tau(   4) = (   0.7442079   0.8575091   0.1503395  )
         5           Bi  tau(   5) = (   0.4958628   0.6125065   0.7134087  )
         6           Bi  tau(   6) = (   0.9958628   0.6125065   0.7134087  )
         7           Bi  tau(   7) = (   0.4925531   1.1025117   0.7134087  )
         8           Bi  tau(   8) = (   0.9925531   1.1025117   0.7134087  )
         9           Bi  tau(   9) = (   0.4975177   0.3675039   0.4127297  )
        10           Bi  tau(  10) = (   0.9975177   0.3675039   0.4127297  )
        11           Bi  tau(  11) = (   0.4942079   0.8575091   0.4127297  )
        12           Bi  tau(  12) = (   0.9942079   0.8575091   0.4127297  )
        13           Bi  tau(  13) = (   0.7458628   0.6125065   0.9757990  )
        14           Bi  tau(  14) = (   1.2458628   0.6125065   0.9757990  )
        15           Bi  tau(  15) = (   0.7425531   1.1025117   0.9757990  )
        16           Bi  tau(  16) = (   1.2425531   1.1025117   0.9757990  )
        17           V   tau(  17) = (   0.4991726   0.1225013   0.1463980  )
        18           V   tau(  18) = (   0.9991726   0.1225013   0.1463980  )
        19           V   tau(  19) = (   0.4958628   0.6125065   0.1463980  )
        20           V   tau(  20) = (   0.9958628   0.6125065   0.1463980  )
        21           V   tau(  21) = (   0.7475177   0.3675039   0.7094672  )
        22           V   tau(  22) = (   1.2475177   0.3675039   0.7094672  )
        23           V   tau(  23) = (   0.7442079   0.8575091   0.7094672  )
        24           V   tau(  24) = (   1.2442079   0.8575091   0.7094672  )
        25           V   tau(  25) = (   0.2458628   0.6125065   0.4166712  )
        26           V   tau(  26) = (   0.7458628   0.6125065   0.4166712  )
        27           V   tau(  27) = (   0.2425531   1.1025117   0.4166712  )
        28           V   tau(  28) = (   0.7425531   1.1025117   0.4166712  )
        29           V   tau(  29) = (   0.4942079   0.8575091   0.9797404  )
        30           V   tau(  30) = (   0.9942079   0.8575091   0.9797404  )
        31           V   tau(  31) = (   0.4908982   1.3475143   0.9797404  )
        32           V   tau(  32) = (   0.9908982   1.3475143   0.9797404  )
        33           O   tau(  33) = (   0.5715628   0.2497945   0.2344620  )
        34           O   tau(  34) = (   1.0715696   0.2487756   0.2344620  )
        35           O   tau(  35) = (   0.5682599   0.7387808   0.2344620  )
        36           O   tau(  36) = (   1.0682599   0.7387808   0.2344620  )
        37           O   tau(  37) = (   0.8199148   0.4937782   0.7975312  )
        38           O   tau(  38) = (   1.3199148   0.4937782   0.7975312  )
        39           O   tau(  39) = (   0.8166050   0.9837834   0.7975312  )
        40           O   tau(  40) = (   1.3166050   0.9837834   0.7975312  )
        41           O   tau(  41) = (   0.4234657   0.4862321   0.2344620  )
        42           O   tau(  42) = (   0.9234657   0.4862321   0.2344620  )
        43           O   tau(  43) = (   0.4201560   0.9762373   0.2344620  )
        44           O   tau(  44) = (   0.9201560   0.9762373   0.2344620  )
        45           O   tau(  45) = (   0.6718109   0.7312347   0.7975312  )
        46           O   tau(  46) = (   1.1718109   0.7312347   0.7975312  )
        47           O   tau(  47) = (   0.6685011   1.2212399   0.7975312  )
        48           O   tau(  48) = (   1.1685011   1.2212399   0.7975312  )
        49           O   tau(  49) = (   0.1734657   0.4862321   0.3286072  )
        50           O   tau(  50) = (   0.6734657   0.4862321   0.3286072  )
        51           O   tau(  51) = (   0.1701560   0.9762373   0.3286072  )
        52           O   tau(  52) = (   0.6701560   0.9762373   0.3286072  )
        53           O   tau(  53) = (   0.4218109   0.7312347   0.8916764  )
        54           O   tau(  54) = (   0.9218109   0.7312347   0.8916764  )
        55           O   tau(  55) = (   0.4185011   1.2212399   0.8916764  )
        56           O   tau(  56) = (   0.9185011   1.2212399   0.8916764  )
        57           O   tau(  57) = (   0.3215696   0.2487756   0.3286072  )
        58           O   tau(  58) = (   0.8215696   0.2487756   0.3286072  )
        59           O   tau(  59) = (   0.3182599   0.7387808   0.3286072  )
        60           O   tau(  60) = (   0.8182599   0.7387808   0.3286072  )
        61           O   tau(  61) = (   0.5699148   0.4937782   0.8916764  )
        62           O   tau(  62) = (   1.0699148   0.4937782   0.8916764  )
        63           O   tau(  63) = (   0.5666050   0.9837834   0.8916764  )
        64           O   tau(  64) = (   1.0666050   0.9837834   0.8916764  )
        65           O   tau(  65) = (   0.6257292   0.6766972   0.5059740  )
        66           O   tau(  66) = (   1.1257292   0.6766972   0.5059740  )
        67           O   tau(  67) = (   0.6224195   1.1667024   0.5059740  )
        68           O   tau(  68) = (   1.1224195   1.1667024   0.5059740  )
        69           O   tau(  69) = (   0.8740744   0.9216998   1.0690432  )
        70           O   tau(  70) = (   1.3740744   0.9216998   1.0690432  )
        71           O   tau(  71) = (   0.8707646   1.4117049   1.0690432  )
        72           O   tau(  72) = (   1.3707646   1.4117049   1.0690432  )
        73           O   tau(  73) = (   0.3659964   0.5483158   0.5059740  )
        74           O   tau(  74) = (   0.8659964   0.5483158   0.5059740  )
        75           O   tau(  75) = (   0.3626866   1.0383210   0.5059740  )
        76           O   tau(  76) = (   0.8626866   1.0383210   0.5059740  )
        77           O   tau(  77) = (   0.6143415   0.7933184   1.0690432  )
        78           O   tau(  78) = (   1.1143415   0.7933184   1.0690432  )
        79           O   tau(  79) = (   0.6110318   1.2833236   1.0690432  )
        80           O   tau(  80) = (   1.1110318   1.2833236   1.0690432  )
        81           O   tau(  81) = (   0.1193061   0.0583106   0.0570952  )
        82           O   tau(  82) = (   0.6193061   0.0583106   0.0570952  )
        83           O   tau(  83) = (   0.1159964   0.5483158   0.0570952  )
        84           O   tau(  84) = (   0.6159964   0.5483158   0.0570952  )
        85           O   tau(  85) = (   0.3676513   0.3033132   0.6201644  )
        86           O   tau(  86) = (   0.8676513   0.3033132   0.6201644  )
        87           O   tau(  87) = (   0.3643415   0.7933184   0.6201644  )
        88           O   tau(  88) = (   0.8643415   0.7933184   0.6201644  )
        89           O   tau(  89) = (   0.3790390   0.1866920   0.0570952  )
        90           O   tau(  90) = (   0.8790390   0.1866920   0.0570952  )
        91           O   tau(  91) = (   0.3757292   0.6766972   0.0570952  )
        92           O   tau(  92) = (   0.8757292   0.6766972   0.0570952  )
        93           O   tau(  93) = (   0.6273841   0.4316946   0.6201644  )
        94           O   tau(  94) = (   1.1273841   0.4316946   0.6201644  )
        95           O   tau(  95) = (   0.6240744   0.9216998   0.6201644  )
        96           O   tau(  96) = (   1.1240744   0.9216998   0.6201644  )

     number of k points=     4
                       cart. coord. in units 2pi/alat
        k(    1) = (   0.2500000   0.2567880   0.0000000), wk =   0.5000000
        k(    2) = (   0.2500000   0.2567880  -0.4439951), wk =   0.5000000
        k(    3) = (   0.2500000  -0.2534107   0.2219976), wk =   0.5000000
        k(    4) = (  -0.2500000   0.2534107   0.2219976), wk =   0.5000000

     Dense  grid:   660405 G-vectors     FFT dimensions: ( 108, 108, 144)

     Estimated max dynamical RAM per process >       2.39 GB

     Estimated total dynamical RAM >       9.55 GB

     Initial potential from superposition of free atoms

     starting charge  703.96725, renormalised to  704.00000
     Starting wfc are  544 randomized atomic wfcs

     total cpu time spent up to now is      110.4 secs

     Self-consistent Calculation

     iteration #  1     ecut=    70.00 Ry     beta= 0.70
     Davidson diagonalization with overlap
     ethr =  1.00E-02,  avg # of iterations =  1.0

     total cpu time spent up to now is      270.4 secs

     total energy              =   -4949.30303905 Ry
     Harris-Foulkes estimate   =   -4981.29897962 Ry
     estimated scf accuracy    <      40.95020440 Ry

     iteration #  2     ecut=    70.00 Ry     beta= 0.70
     Davidson diagonalization with overlap
     ethr =  5.82E-03,  avg # of iterations =  4.0

     total cpu time spent up to now is      563.8 secs

     total energy              =   -4901.62354379 Ry
     Harris-Foulkes estimate   =   -5036.22047470 Ry
     estimated scf accuracy    <     571.09876866 Ry

     iteration #  3     ecut=    70.00 Ry     beta= 0.70
     Davidson diagonalization with overlap
     ethr =  5.82E-03,  avg # of iterations =  6.2

     total cpu time spent up to now is      868.7 secs

     total energy              =   -4970.00713147 Ry
     Harris-Foulkes estimate   =   -4977.38066562 Ry
     estimated scf accuracy    <      23.88713886 Ry

     iteration #  4     ecut=    70.00 Ry     beta= 0.70
     Davidson diagonalization with overlap
     ethr =  3.39E-03,  avg # of iterations =  2.0

     total cpu time spent up to now is     1066.5 secs

     total energy              =   -4972.11117771 Ry
     Harris-Foulkes estimate   =   -4972.74410653 Ry
     estimated scf accuracy    <       4.39634303 Ry

     iteration #  5     ecut=    70.00 Ry     beta= 0.70
     Davidson diagonalization with overlap
     ethr =  6.24E-04,  avg # of iterations =  2.0

     total cpu time spent up to now is     1231.7 secs

     total energy              =   -4971.79393108 Ry
     Harris-Foulkes estimate   =   -4972.31616605 Ry
     estimated scf accuracy    <       2.08395445 Ry

     iteration #  6     ecut=    70.00 Ry     beta= 0.70
     Davidson diagonalization with overlap
     ethr =  2.96E-04,  avg # of iterations =  3.0

     total cpu time spent up to now is     1437.3 secs

     total energy              =   -4972.08334858 Ry
     Harris-Foulkes estimate   =   -4972.11775411 Ry
     estimated scf accuracy    <       0.06076500 Ry

     iteration #  7     ecut=    70.00 Ry     beta= 0.70
     Davidson diagonalization with overlap
     ethr =  8.63E-06,  avg # of iterations =  4.0

     total cpu time spent up to now is     1699.9 secs

     total energy              =   -4972.08870652 Ry
     Harris-Foulkes estimate   =   -4972.12834131 Ry
     estimated scf accuracy    <       0.12328756 Ry

     iteration #  8     ecut=    70.00 Ry     beta= 0.70
     Davidson diagonalization with overlap
     ethr =  8.63E-06,  avg # of iterations =  3.0

     total cpu time spent up to now is     1944.0 secs

     total energy              =   -4972.09946030 Ry
     Harris-Foulkes estimate   =   -4972.11700558 Ry
     estimated scf accuracy    <       0.06329488 Ry

     iteration #  9     ecut=    70.00 Ry     beta= 0.70
     Davidson diagonalization with overlap
     ethr =  8.63E-06,  avg # of iterations =  3.0

     total cpu time spent up to now is     2173.1 secs

     total energy              =   -4972.10868440 Ry
     Harris-Foulkes estimate   =   -4972.11364027 Ry
     estimated scf accuracy    <       0.02790742 Ry

     iteration # 10     ecut=    70.00 Ry     beta= 0.70
     Davidson diagonalization with overlap
     ethr =  3.96E-06,  avg # of iterations =  2.0

     total cpu time spent up to now is     2342.7 secs

     total energy              =   -4972.10774102 Ry
     Harris-Foulkes estimate   =   -4972.11031805 Ry
     estimated scf accuracy    <       0.00894135 Ry

     iteration # 11     ecut=    70.00 Ry     beta= 0.70
     Davidson diagonalization with overlap
     ethr =  1.27E-06,  avg # of iterations =  3.0

     total cpu time spent up to now is     2552.7 secs

     total energy              =   -4972.10923958 Ry
     Harris-Foulkes estimate   =   -4972.10930655 Ry
     estimated scf accuracy    <       0.00025523 Ry

     iteration # 12     ecut=    70.00 Ry     beta= 0.70
     Davidson diagonalization with overlap
     ethr =  3.63E-08,  avg # of iterations =  3.0

     total cpu time spent up to now is     2792.2 secs

     total energy              =   -4972.10925976 Ry
     Harris-Foulkes estimate   =   -4972.10933331 Ry
     estimated scf accuracy    <       0.00029236 Ry

     iteration # 13     ecut=    70.00 Ry     beta= 0.70
     Davidson diagonalization with overlap
     ethr =  3.63E-08,  avg # of iterations =  3.0

     total cpu time spent up to now is     3004.4 secs

     total energy              =   -4972.10928196 Ry
     Harris-Foulkes estimate   =   -4972.10929904 Ry
     estimated scf accuracy    <       0.00006137 Ry

     iteration # 14     ecut=    70.00 Ry     beta= 0.70
     Davidson diagonalization with overlap
     ethr =  8.72E-09,  avg # of iterations =  3.0

     total cpu time spent up to now is     3213.7 secs

     total energy              =   -4972.10928936 Ry
     Harris-Foulkes estimate   =   -4972.10929154 Ry
     estimated scf accuracy    <       0.00000581 Ry

     iteration # 15     ecut=    70.00 Ry     beta= 0.70
     Davidson diagonalization with overlap
     ethr =  8.26E-10,  avg # of iterations =  3.0

     total cpu time spent up to now is     3465.3 secs

     total energy              =   -4972.10928964 Ry
     Harris-Foulkes estimate   =   -4972.10929219 Ry
     estimated scf accuracy    <       0.00000891 Ry

     iteration # 16     ecut=    70.00 Ry     beta= 0.70
     Davidson diagonalization with overlap
     ethr =  8.26E-10,  avg # of iterations =  3.0

     total cpu time spent up to now is     3690.4 secs

     total energy              =   -4972.10929082 Ry
     Harris-Foulkes estimate   =   -4972.10929093 Ry
     estimated scf accuracy    <       0.00000025 Ry

     iteration # 17     ecut=    70.00 Ry     beta= 0.70
     Davidson diagonalization with overlap
     ethr =  3.55E-11,  avg # of iterations =  3.2

     total cpu time spent up to now is     3947.0 secs

     total energy              =   -4972.10929083 Ry
     Harris-Foulkes estimate   =   -4972.10929098 Ry
     estimated scf accuracy    <       0.00000059 Ry

     iteration # 18     ecut=    70.00 Ry     beta= 0.70
     Davidson diagonalization with overlap
     ethr =  3.55E-11,  avg # of iterations =  3.0

     total cpu time spent up to now is     4187.8 secs

     total energy              =   -4972.10929089 Ry
     Harris-Foulkes estimate   =   -4972.10929092 Ry
     estimated scf accuracy    <       0.00000009 Ry

     iteration # 19     ecut=    70.00 Ry     beta= 0.70
     Davidson diagonalization with overlap
     ethr =  1.22E-11,  avg # of iterations =  3.0

     total cpu time spent up to now is     4414.3 secs

     total energy              =   -4972.10929091 Ry
     Harris-Foulkes estimate   =   -4972.10929091 Ry
     estimated scf accuracy    <       0.00000002 Ry

     iteration # 20     ecut=    70.00 Ry     beta= 0.70
     Davidson diagonalization with overlap
     ethr =  2.60E-12,  avg # of iterations =  3.0

     total cpu time spent up to now is     4643.8 secs

     total energy              =   -4972.10929091 Ry
     Harris-Foulkes estimate   =   -4972.10929091 Ry
     estimated scf accuracy    <          8.1E-09 Ry

     iteration # 21     ecut=    70.00 Ry     beta= 0.70
     Davidson diagonalization with overlap
     ethr =  1.14E-12,  avg # of iterations =  3.0

     total cpu time spent up to now is     4864.5 secs

     total energy              =   -4972.10929091 Ry
     Harris-Foulkes estimate   =   -4972.10929091 Ry
     estimated scf accuracy    <          1.4E-09 Ry

     iteration # 22     ecut=    70.00 Ry     beta= 0.70
     Davidson diagonalization with overlap
     ethr =  2.00E-13,  avg # of iterations =  3.0

     total cpu time spent up to now is     5099.4 secs

     total energy              =   -4972.10929091 Ry
     Harris-Foulkes estimate   =   -4972.10929091 Ry
     estimated scf accuracy    <          1.1E-09 Ry

     iteration # 23     ecut=    70.00 Ry     beta= 0.70
     Davidson diagonalization with overlap
     ethr =  1.58E-13,  avg # of iterations =  3.0

     total cpu time spent up to now is     5318.7 secs

     End of self-consistent calculation

          k = 0.2500 0.2568 0.0000 ( 82568 PWs)   bands (ev):

   -14.4875 -14.4870 -14.4868 -14.4843 -14.4840 -14.4829 -14.4821 -14.4786
   -14.4774 -14.4695 -14.4684 -14.4651 -14.4634 -14.4630 -14.4578 -14.4567
   -14.4516 -14.4503 -14.4473 -14.4357 -14.4338 -14.4310 -14.4294 -14.4237
   -14.4231 -14.4126 -14.4116 -14.4063 -14.4051 -14.4047 -14.4038 -14.4024
   -14.4004 -14.3989 -14.3981 -14.3974 -14.3972 -14.3964 -14.3944 -14.3940
   -14.3932 -14.3927 -14.3916 -14.3915 -14.3910 -14.3898 -14.3893 -14.3884
   -14.3870 -14.3851 -14.3835 -14.3815 -14.3801 -14.3798 -14.3791 -14.3790
   -14.3776 -14.3738 -14.3732 -14.3682 -14.3679 -14.3665 -14.3630 -14.3618
   -14.3597 -14.3593 -14.3586 -14.3569 -14.3545 -14.3530 -14.3525 -14.3510
   -14.3492 -14.3484 -14.3477 -14.3455 -14.3425 -14.3416 -14.3401 -14.3343
   -10.4960 -10.2964 -10.1664 -10.1660 -10.1204 -10.1201  -9.9303  -9.8058
    -9.6780  -9.6048  -9.6044  -9.5997  -9.5993  -9.5450  -9.4696  -9.3934
    -9.3594  -9.3221  -9.3202  -9.3148  -9.3028  -9.2807  -9.2795  -9.2520
    -9.2430  -9.1709  -9.1483  -9.1141  -9.1136  -9.0840  -9.0834  -9.0660
    -9.0636  -9.0423  -9.0404  -9.0394  -8.9747  -8.9734  -8.9538  -8.9458
    -8.9345  -8.9334  -8.9249  -8.8992  -8.8917  -8.8906  -8.8893  -8.8631
    -8.8257  -8.8252  -8.8238  -8.8222  -8.8211  -8.8048  -8.7847  -8.7830
    -8.7766  -8.7530  -8.7149  -8.7057  -8.7036  -8.6874  -8.6854  -8.6590
    -2.2088  -2.0741  -2.0739  -1.9657  -1.9019  -1.9012  -1.8931  -1.7947
    -1.5975  -1.5524  -1.5509  -1.5033  -1.4717  -1.3588  -1.3565  -1.3042
     2.4199   2.4645   2.4986   2.4993   2.5541   2.5550   2.6750   2.7355
     2.7360   2.7410   2.7507   2.7522   2.7648   2.7712   2.7756   2.8354
     2.8361   2.9410   2.9518   2.9761   2.9763   3.0044   3.1130   3.1807
     3.1809   3.2215   3.2517   3.2520   3.2808   3.3618   3.3861   3.3863
     3.4145   3.4221   3.4229   3.5347   3.5349   3.6264   3.6424   3.7115
     3.7124   3.7693   3.7760   3.7914   3.8966   3.8979   3.8983   3.9699
     3.9951   4.0185   4.0277   4.0425   4.0432   4.0441   4.0444   4.1465
     4.1865   4.2091   4.2099   4.2363   4.2399   4.2410   4.2456   4.2681
     4.2848   4.2861   4.3016   4.3518   4.3653   4.3694   4.3705   4.3765
     4.3826   4.3839   4.4050   4.4087   4.4423   4.4873   4.4935   4.4943
     4.5363   4.5386   4.6139   4.6349   4.6365   4.6439   4.6450   4.6729
     4.6736   4.6798   4.6966   4.7001   4.7134   4.7216   4.7675   4.7698
     4.7708   4.8420   4.8612   4.8616   4.9200   4.9342   5.0015   5.0074
     5.0083   5.0559   5.0570   5.0931   5.0936   5.1133   5.1228   5.1239
     5.1456   5.1460   5.2146   5.2734   5.2868   5.2873   5.2879   5.3623
     5.3683   5.3691   5.3936   5.3976   5.4236   5.5201   5.5203   5.5454
     5.6495   5.7456   5.7462   5.7515   5.8381   5.8538   5.8543   5.8708
     5.8906   5.9897   5.9928   5.9932   6.0036   6.0646   6.0653   6.1330
     6.1354   6.1559   6.2483   6.2713   6.2721   6.2737   6.2746   6.2753
     6.2848   6.2858   6.2955   6.4114   6.4131   6.4142   6.4193   6.4233
     6.4647   6.4652   6.4740   6.4746   6.4923   6.5825   6.5890   6.5907
     6.6958   6.6977   6.7265   6.7914   6.7918   6.7955   6.8121   6.8680
     6.8740   6.8791   6.8798   6.9328   6.9424   6.9467   6.9480   6.9902
     6.9908   7.0639   7.1491   7.2889   7.2898   7.3693   7.3702   7.4779

          k = 0.2500 0.2568-0.4440 ( 82488 PWs)   bands (ev):

   -14.4877 -14.4871 -14.4865 -14.4846 -14.4840 -14.4836 -14.4812 -14.4769
   -14.4756 -14.4734 -14.4711 -14.4600 -14.4581 -14.4571 -14.4564 -14.4552
   -14.4527 -14.4519 -14.4512 -14.4476 -14.4353 -14.4318 -14.4302 -14.4220
   -14.4205 -14.4160 -14.4148 -14.4136 -14.4069 -14.4059 -14.4036 -14.4020
   -14.3996 -14.3989 -14.3982 -14.3975 -14.3973 -14.3965 -14.3963 -14.3939
   -14.3928 -14.3926 -14.3918 -14.3907 -14.3894 -14.3879 -14.3874 -14.3859
   -14.3849 -14.3832 -14.3821 -14.3801 -14.3790 -14.3756 -14.3748 -14.3719
   -14.3717 -14.3712 -14.3711 -14.3697 -14.3691 -14.3678 -14.3675 -14.3661
   -14.3619 -14.3612 -14.3599 -14.3566 -14.3540 -14.3534 -14.3527 -14.3518
   -14.3501 -14.3496 -14.3485 -14.3473 -14.3435 -14.3414 -14.3402 -14.3339
   -10.4125 -10.4121 -10.2243 -10.1947 -10.0988 -10.0190  -9.8745  -9.8740
    -9.6768  -9.6001  -9.5593  -9.5147  -9.5086  -9.5080  -9.4919  -9.4903
    -9.4420  -9.4405  -9.3929  -9.3922  -9.2307  -9.2246  -9.2238  -9.1946
    -9.1942  -9.1706  -9.1689  -9.1525  -9.1422  -9.1384  -9.1233  -9.0858
    -9.0664  -9.0660  -9.0500  -8.9818  -8.9740  -8.9636  -8.9094  -8.9079
    -8.9008  -8.8996  -8.8940  -8.8894  -8.8882  -8.8799  -8.8765  -8.8749
    -8.8533  -8.8408  -8.8312  -8.8302  -8.8164  -8.8156  -8.8008  -8.7859
    -8.7851  -8.7647  -8.7198  -8.6982  -8.6928  -8.6862  -8.6842  -8.6823
    -2.1226  -2.0992  -2.0989  -2.0228  -1.9816  -1.8514  -1.8506  -1.7730
    -1.6569  -1.5441  -1.5426  -1.4951  -1.3895  -1.3773  -1.3747  -1.3293
     2.4968   2.5000   2.5658   2.5691   2.5696   2.5722   2.6232   2.6611
     2.6620   2.7258   2.7265   2.7516   2.7520   2.7768   2.8685   2.8700
     2.8706   2.8739   2.8780   2.8792   2.9149   3.0341   3.0923   3.1337
     3.1397   3.1401   3.2568   3.2598   3.2722   3.2856   3.2982   3.2986
     3.3723   3.4351   3.4616   3.4622   3.6026   3.6034   3.6717   3.7706
     3.7987   3.8284   3.9027   3.9034   3.9859   3.9862   4.0145   4.0366
     4.0476   4.0665   4.0845   4.0942   4.1180   4.1187   4.1496   4.1703
     4.1706   4.2044   4.2223   4.2227   4.2236   4.2370   4.2648   4.2853
     4.2855   4.2966   4.2983   4.2991   4.3191   4.3396   4.3402   4.3431
     4.4063   4.4312   4.4322   4.4349   4.4730   4.4736   4.4747   4.4790
     4.4814   4.4821   4.5268   4.5324   4.5517   4.5525   4.6018   4.6253
     4.6257   4.6409   4.6861   4.6867   4.7305   4.7920   4.8223   4.8231
     4.8317   4.8325   4.8641   4.8786   4.8793   4.8857   4.8863   4.8979
     4.8989   4.9910   5.0356   5.0371   5.0930   5.1063   5.1168   5.1533
     5.1648   5.1656   5.2043   5.2260   5.2460   5.2463   5.2549   5.2749
     5.3073   5.3362   5.3370   5.4452   5.4709   5.5704   5.5707   5.6565
     5.7132   5.7952   5.8000   5.8009   5.8117   5.8866   5.8868   5.9159
     5.9802   6.0123   6.0305   6.0312   6.0559   6.0660   6.0676   6.0681
     6.1152   6.1611   6.1692   6.1703   6.1874   6.2018   6.2025   6.2751
     6.3444   6.3548   6.3555   6.4013   6.4022   6.4098   6.4911   6.4918
     6.5011   6.5123   6.5235   6.5265   6.5775   6.5874   6.6174   6.6364
     6.6374   6.6572   6.6860   6.6864   6.7872   6.7884   6.8020   6.8024
     6.8247   6.8808   6.8815   6.9349   6.9355   6.9554   6.9557   6.9715
     7.0244   7.0312   7.0890   7.1810   7.3439   7.3450   7.4400   7.5549

          k = 0.2500-0.2534 0.2220 ( 82555 PWs)   bands (ev):

   -14.4878 -14.4872 -14.4860 -14.4857 -14.4850 -14.4830 -14.4811 -14.4766
   -14.4753 -14.4724 -14.4701 -14.4624 -14.4612 -14.4592 -14.4590 -14.4564
   -14.4539 -14.4496 -14.4472 -14.4416 -14.4356 -14.4305 -14.4286 -14.4241
   -14.4220 -14.4149 -14.4118 -14.4092 -14.4069 -14.4061 -14.4055 -14.4024
   -14.3999 -14.3986 -14.3977 -14.3975 -14.3964 -14.3962 -14.3942 -14.3938
   -14.3929 -14.3920 -14.3914 -14.3907 -14.3899 -14.3892 -14.3888 -14.3868
   -14.3865 -14.3857 -14.3831 -14.3824 -14.3807 -14.3785 -14.3755 -14.3747
   -14.3733 -14.3720 -14.3715 -14.3708 -14.3681 -14.3667 -14.3654 -14.3647
   -14.3611 -14.3598 -14.3572 -14.3565 -14.3551 -14.3544 -14.3523 -14.3510
   -14.3498 -14.3492 -14.3483 -14.3466 -14.3429 -14.3408 -14.3399 -14.3344
   -10.4781 -10.3428 -10.2013 -10.1570 -10.1065 -10.0292  -9.9444  -9.8711
    -9.6906  -9.6133  -9.6074  -9.5885  -9.5733  -9.4718  -9.4149  -9.4082
    -9.4069  -9.3900  -9.3834  -9.3602  -9.2468  -9.2338  -9.2224  -9.2015
    -9.1966  -9.1781  -9.1648  -9.1334  -9.1211  -9.1183  -9.1110  -9.1105
    -9.0625  -9.0583  -9.0569  -9.0238  -9.0221  -9.0102  -8.9361  -8.9358
    -8.9316  -8.9146  -8.9137  -8.8896  -8.8864  -8.8849  -8.8486  -8.8475
    -8.8417  -8.8399  -8.8080  -8.7964  -8.7950  -8.7842  -8.7836  -8.7721
    -8.7685  -8.7636  -8.7592  -8.7328  -8.7105  -8.7048  -8.6766  -8.6496
    -2.1763  -2.1134  -2.0313  -2.0121  -1.9598  -1.8801  -1.8245  -1.8182
    -1.6236  -1.5598  -1.5193  -1.5099  -1.4281  -1.3958  -1.3343  -1.3223
     2.4310   2.4819   2.5237   2.5566   2.5786   2.5803   2.5828   2.6380
     2.6911   2.7009   2.7261   2.7408   2.7830   2.7905   2.8052   2.8415
     2.8422   2.8596   3.0155   3.0340   3.0570   3.0832   3.1171   3.1270
     3.1427   3.1916   3.1946   3.2119   3.2336   3.2545   3.3125   3.3726
     3.5132   3.5259   3.5407   3.5500   3.5761   3.6008   3.6512   3.6569
     3.6881   3.6971   3.8618   3.8733   3.9123   3.9346   3.9450   3.9526
     3.9845   3.9868   4.0116   4.0482   4.0983   4.1146   4.1279   4.1409
     4.1489   4.1963   4.2021   4.2061   4.2120   4.2315   4.2342   4.2425
     4.2493   4.2530   4.2954   4.3076   4.3417   4.3557   4.3573   4.3840
     4.4247   4.4275   4.4340   4.4446   4.4541   4.4687   4.4966   4.5299
     4.5391   4.5409   4.5417   4.5652   4.5726   4.6685   4.6694   4.6830
     4.6893   4.7133   4.7348   4.7380   4.7497   4.7528   4.7570   4.7633
     4.7919   4.7982   4.8718   4.8756   4.8775   4.9042   4.9321   4.9655
     4.9766   4.9992   5.0322   5.0497   5.0929   5.0953   5.1236   5.1779
     5.1853   5.2026   5.2298   5.2568   5.2667   5.2686   5.2963   5.3009
     5.3748   5.3771   5.4497   5.4661   5.5040   5.5401   5.5448   5.6072
     5.6761   5.6874   5.6928   5.7129   5.7218   5.7492   5.8080   5.8540
     5.8890   5.9405   5.9611   5.9758   5.9883   6.0376   6.0480   6.1432
     6.1513   6.2007   6.2275   6.2532   6.2725   6.2746   6.2800   6.3112
     6.3351   6.3531   6.3586   6.3778   6.4243   6.4330   6.4337   6.4785
     6.4793   6.5015   6.5553   6.5675   6.6151   6.6213   6.6619   6.6652
     6.6905   6.6923   6.6936   6.7218   6.7266   6.7316   6.7481   6.7898
     6.8300   6.8701   6.8872   6.9220   6.9376   6.9428   6.9572   6.9793
     6.9816   7.0797   7.1208   7.2383   7.2887   7.3057   7.4635   7.4688

          k =-0.2500 0.2534 0.2220 ( 82555 PWs)   bands (ev):

   -14.4878 -14.4872 -14.4859 -14.4856 -14.4853 -14.4830 -14.4810 -14.4768
   -14.4751 -14.4728 -14.4698 -14.4626 -14.4614 -14.4594 -14.4585 -14.4559
   -14.4542 -14.4496 -14.4474 -14.4415 -14.4356 -14.4308 -14.4283 -14.4242
   -14.4221 -14.4147 -14.4120 -14.4089 -14.4070 -14.4062 -14.4053 -14.4027
   -14.3997 -14.3987 -14.3979 -14.3975 -14.3964 -14.3960 -14.3940 -14.3938
   -14.3928 -14.3922 -14.3919 -14.3907 -14.3901 -14.3894 -14.3880 -14.3875
   -14.3863 -14.3853 -14.3835 -14.3821 -14.3805 -14.3785 -14.3758 -14.3747
   -14.3736 -14.3723 -14.3712 -14.3702 -14.3678 -14.3671 -14.3652 -14.3648
   -14.3615 -14.3597 -14.3570 -14.3567 -14.3549 -14.3539 -14.3528 -14.3508
   -14.3498 -14.3494 -14.3483 -14.3463 -14.3434 -14.3407 -14.3397 -14.3344
   -10.4781 -10.3428 -10.2013 -10.1569 -10.1065 -10.0292  -9.9444  -9.8711
    -9.6906  -9.6134  -9.6074  -9.5885  -9.5732  -9.4718  -9.4149  -9.4081
    -9.4068  -9.3898  -9.3833  -9.3604  -9.2467  -9.2338  -9.2227  -9.2014
    -9.1968  -9.1780  -9.1654  -9.1334  -9.1208  -9.1184  -9.1110  -9.1099
    -9.0625  -9.0582  -9.0571  -9.0240  -9.0221  -9.0101  -8.9368  -8.9350
    -8.9317  -8.9146  -8.9136  -8.8895  -8.8862  -8.8851  -8.8487  -8.8475
    -8.8416  -8.8400  -8.8080  -8.7961  -8.7951  -8.7844  -8.7836  -8.7723
    -8.7685  -8.7636  -8.7592  -8.7328  -8.7104  -8.7049  -8.6766  -8.6496
    -2.1762  -2.1134  -2.0313  -2.0122  -1.9595  -1.8803  -1.8251  -1.8182
    -1.6229  -1.5600  -1.5190  -1.5103  -1.4281  -1.3958  -1.3344  -1.3223
     2.4310   2.4820   2.5241   2.5561   2.5779   2.5804   2.5825   2.6386
     2.6913   2.7009   2.7259   2.7412   2.7827   2.7904   2.8050   2.8417
     2.8426   2.8598   3.0158   3.0335   3.0567   3.0830   3.1173   3.1268
     3.1426   3.1919   3.1951   3.2116   3.2338   3.2544   3.3125   3.3725
     3.5134   3.5258   3.5411   3.5498   3.5762   3.6007   3.6513   3.6565
     3.6880   3.6971   3.8617   3.8735   3.9119   3.9339   3.9452   3.9526
     3.9845   3.9870   4.0120   4.0484   4.0984   4.1153   4.1286   4.1411
     4.1482   4.1960   4.2022   4.2058   4.2128   4.2319   4.2346   4.2428
     4.2504   4.2522   4.2942   4.3076   4.3409   4.3550   4.3571   4.3828
     4.4249   4.4271   4.4332   4.4447   4.4533   4.4692   4.4974   4.5297
     4.5392   4.5406   4.5431   4.5654   4.5734   4.6687   4.6695   4.6827
     4.6894   4.7125   4.7346   4.7383   4.7500   4.7534   4.7570   4.7634
     4.7918   4.7975   4.8720   4.8751   4.8774   4.9043   4.9321   4.9656
     4.9769   4.9991   5.0320   5.0502   5.0930   5.0951   5.1235   5.1777
     5.1856   5.2026   5.2299   5.2570   5.2662   5.2684   5.2959   5.3007
     5.3748   5.3762   5.4500   5.4655   5.5038   5.5403   5.5445   5.6071
     5.6763   5.6879   5.6930   5.7133   5.7216   5.7494   5.8082   5.8544
     5.8890   5.9407   5.9607   5.9761   5.9887   6.0378   6.0479   6.1435
     6.1513   6.2005   6.2279   6.2530   6.2725   6.2746   6.2803   6.3113
     6.3349   6.3530   6.3586   6.3776   6.4243   6.4330   6.4339   6.4783
     6.4794   6.5013   6.5551   6.5677   6.6151   6.6212   6.6619   6.6647
     6.6908   6.6923   6.6936   6.7215   6.7263   6.7319   6.7482   6.7899
     6.8300   6.8701   6.8876   6.9218   6.9376   6.9428   6.9569   6.9793
     6.9816   7.0799   7.1206   7.2383   7.2885   7.3059   7.4636   7.4688

     highest occupied level (ev):     7.5549

!    total energy              =   -4972.10929091 Ry
     Harris-Foulkes estimate   =   -4972.10929091 Ry
     estimated scf accuracy    <          3.5E-10 Ry

     The total energy is the sum of the following terms:

     one-electron contribution =   -1193.19956095 Ry
     hartree contribution      =    1074.18402194 Ry
     xc contribution           =   -1297.69661330 Ry
     ewald contribution        =   -3555.39713861 Ry

     convergence has been achieved in  23 iterations

     Forces acting on atoms (cartesian axes, Ry/au):

     atom    1 type  1   force =    -0.00008003    0.00033126   -0.01362940
     atom    2 type  1   force =    -0.00036839    0.00017096   -0.01379578
     atom    3 type  1   force =    -0.00030249   -0.00026857   -0.01390023
     atom    4 type  1   force =     0.00024299   -0.00037010   -0.01371092
     atom    5 type  1   force =    -0.00001493   -0.00003994   -0.01394116
     atom    6 type  1   force =    -0.00000935   -0.00001497   -0.01395103
     atom    7 type  1   force =     0.00000069    0.00004450   -0.01386337
     atom    8 type  1   force =     0.00000608    0.00001961   -0.01388063
     atom    9 type  1   force =     0.00022150    0.00015154    0.01361562
     atom   10 type  1   force =    -0.00007311    0.00006434    0.01381351
     atom   11 type  1   force =     0.00008179   -0.00032405    0.01416069
     atom   12 type  1   force =    -0.00000662   -0.00006211    0.01387440
     atom   13 type  1   force =    -0.00016102   -0.00002764    0.01360634
     atom   14 type  1   force =     0.00018785    0.00011546    0.01359207
     atom   15 type  1   force =    -0.00003059   -0.00001759    0.01386221
     atom   16 type  1   force =     0.00003226   -0.00007361    0.01390458
     atom   17 type  2   force =     0.00149347    0.00420609    0.00702071
     atom   18 type  2   force =    -0.00012374    0.00008912    0.00453033
     atom   19 type  2   force =    -0.00006021   -0.00034651    0.00463758
     atom   20 type  2   force =    -0.00013112   -0.00025796    0.00468973
     atom   21 type  2   force =    -0.00010502    0.00003230    0.00444823
     atom   22 type  2   force =     0.00009711   -0.00006862    0.00444892
     atom   23 type  2   force =     0.00001441   -0.00000375    0.00453440
     atom   24 type  2   force =     0.00000809    0.00001579    0.00453936
     atom   25 type  2   force =     0.00019325   -0.00011509   -0.00441446
     atom   26 type  2   force =    -0.00010592   -0.00027732   -0.00468127
     atom   27 type  2   force =    -0.00010548    0.00011269   -0.00445319
     atom   28 type  2   force =     0.00021531    0.00035127   -0.00437234
     atom   29 type  2   force =    -0.00016773    0.00012522   -0.00447099
     atom   30 type  2   force =     0.00009896    0.00005834   -0.00457610
     atom   31 type  2   force =    -0.00001157   -0.00003465   -0.00457343
     atom   32 type  2   force =    -0.00000788   -0.00013244   -0.00470303
     atom   33 type  3   force =    -0.00224533   -0.00703679   -0.00300565
     atom   34 type  3   force =    -0.00015086   -0.00128624    0.00014466
     atom   35 type  3   force =    -0.00010628   -0.00109105    0.00022357
     atom   36 type  3   force =    -0.00007149   -0.00115765    0.00017260
     atom   37 type  3   force =    -0.00015030   -0.00122343    0.00024471
     atom   38 type  3   force =    -0.00015580   -0.00121854    0.00024417
     atom   39 type  3   force =    -0.00016789   -0.00128806    0.00016790
     atom   40 type  3   force =    -0.00018169   -0.00129058    0.00015543
     atom   41 type  3   force =    -0.00053636    0.00214291    0.00011134
     atom   42 type  3   force =     0.00002841    0.00204550    0.00031813
     atom   43 type  3   force =     0.00012172    0.00254662   -0.00035334
     atom   44 type  3   force =    -0.00036649    0.00166510    0.00021020
     atom   45 type  3   force =    -0.00031977    0.00167585    0.00025587
     atom   46 type  3   force =    -0.00032954    0.00167145    0.00025457
     atom   47 type  3   force =    -0.00035043    0.00167113    0.00023835
     atom   48 type  3   force =    -0.00036799    0.00167563    0.00023703
     atom   49 type  3   force =     0.00017446    0.00119219   -0.00026404
     atom   50 type  3   force =     0.00042287    0.00177696    0.00010248
     atom   51 type  3   force =     0.00022733    0.00127071   -0.00021635
     atom   52 type  3   force =    -0.00008364    0.00144431   -0.00046353
     atom   53 type  3   force =     0.00009344    0.00120074   -0.00017499
     atom   54 type  3   force =     0.00015220    0.00126338   -0.00013120
     atom   55 type  3   force =     0.00019032    0.00131203   -0.00014364
     atom   56 type  3   force =     0.00020153    0.00133023   -0.00013046
     atom   57 type  3   force =     0.00033479   -0.00189789   -0.00029852
     atom   58 type  3   force =     0.00037879   -0.00189930   -0.00006785
     atom   59 type  3   force =     0.00039419   -0.00154976   -0.00026434
     atom   60 type  3   force =     0.00037188   -0.00154953   -0.00033254
     atom   61 type  3   force =     0.00037731   -0.00167452   -0.00017800
     atom   62 type  3   force =     0.00032764   -0.00171548   -0.00013510
     atom   63 type  3   force =     0.00036014   -0.00167457   -0.00023121
     atom   64 type  3   force =     0.00032251   -0.00171535   -0.00020122
     atom   65 type  3   force =    -0.00886447    0.00548797    0.00549884
     atom   66 type  3   force =    -0.00880506    0.00540504    0.00549457
     atom   67 type  3   force =    -0.00869814    0.00528237    0.00540559
     atom   68 type  3   force =    -0.00870396    0.00534404    0.00543991
     atom   69 type  3   force =    -0.00876870    0.00532178    0.00549428
     atom   70 type  3   force =    -0.00851297    0.00538460    0.00514572
     atom   71 type  3   force =    -0.00873699    0.00545384    0.00554198
     atom   72 type  3   force =    -0.00877962    0.00539369    0.00547481
     atom   73 type  3   force =     0.00811686   -0.00479630    0.00547006
     atom   74 type  3   force =     0.00846510   -0.00511287    0.00551462
     atom   75 type  3   force =     0.00844687   -0.00512764    0.00542957
     atom   76 type  3   force =     0.00838791   -0.00511104    0.00546759
     atom   77 type  3   force =     0.00850615   -0.00514771    0.00552932
     atom   78 type  3   force =     0.00835651   -0.00517308    0.00540555
     atom   79 type  3   force =     0.00845055   -0.00508696    0.00551510
     atom   80 type  3   force =     0.00839824   -0.00499633    0.00550805
     atom   81 type  3   force =     0.00884567   -0.00541415   -0.00549340
     atom   82 type  3   force =     0.00796843   -0.00472997   -0.00474717
     atom   83 type  3   force =     0.00884118   -0.00544678   -0.00547653
     atom   84 type  3   force =     0.00868639   -0.00531430   -0.00548021
     atom   85 type  3   force =     0.00857039   -0.00541558   -0.00525134
     atom   86 type  3   force =     0.00877248   -0.00540251   -0.00546116
     atom   87 type  3   force =     0.00876839   -0.00535986   -0.00548175
     atom   88 type  3   force =     0.00874359   -0.00536975   -0.00544728
     atom   89 type  3   force =    -0.00750207    0.00423804   -0.00507084
     atom   90 type  3   force =    -0.00831836    0.00489309   -0.00548643
     atom   91 type  3   force =    -0.00851020    0.00517595   -0.00554640
     atom   92 type  3   force =    -0.00850204    0.00517986   -0.00548962
     atom   93 type  3   force =    -0.00825686    0.00508844   -0.00529613
     atom   94 type  3   force =    -0.00844448    0.00510591   -0.00547901
     atom   95 type  3   force =    -0.00843468    0.00508460   -0.00550933
     atom   96 type  3   force =    -0.00841033    0.00509604   -0.00546939

     Total force =     0.087807     Total SCF correction =     0.000084


     Computing stress (Cartesian axis) and pressure

          total   stress  (Ry/bohr**3)                   (kbar)     P=   40.49
   0.00029074   0.00000097  -0.00000028         42.77      0.14     -0.04
   0.00000097   0.00026564  -0.00000051          0.14     39.08     -0.07
  -0.00000028  -0.00000051   0.00026928         -0.04     -0.07     39.61


     init_run     :    108.01s CPU    110.13s WALL (       1 calls)
     electrons    :   5113.07s CPU   5208.27s WALL (       1 calls)
     forces       :     34.51s CPU     35.02s WALL (       1 calls)
     stress       :    299.47s CPU    300.59s WALL (       1 calls)

     Called by init_run:
     wfcinit      :     94.25s CPU     96.05s WALL (       1 calls)
     potinit      :      4.45s CPU      4.48s WALL (       1 calls)

     Called by electrons:
     c_bands      :   4412.34s CPU   4487.12s WALL (      23 calls)
     sum_band     :    663.75s CPU    678.38s WALL (      23 calls)
     v_of_rho     :      9.29s CPU      9.51s WALL (      24 calls)
     newd         :     26.42s CPU     32.23s WALL (      24 calls)
     mix_rho      :      2.48s CPU      2.51s WALL (      23 calls)

     Called by c_bands:
     init_us_2    :     25.86s CPU     25.91s WALL (     196 calls)
     cegterg      :   4336.90s CPU   4411.64s WALL (      92 calls)

     Called by sum_band:
     sum_band:bec :      0.20s CPU      0.21s WALL (      92 calls)
     addusdens    :     37.96s CPU     44.15s WALL (      23 calls)

     Called by *egterg:
     h_psi        :   3202.95s CPU   3249.43s WALL (     374 calls)
     s_psi        :    325.76s CPU    325.73s WALL (     374 calls)
     g_psi        :      5.71s CPU      5.73s WALL (     278 calls)
     cdiaghg      :    131.63s CPU    131.76s WALL (     370 calls)

     Called by h_psi:
     h_psi:pot    :   3184.90s CPU   3231.21s WALL (     374 calls)
     h_psi:calbec :    306.04s CPU    306.30s WALL (     374 calls)
     vloc_psi     :   2551.24s CPU   2597.30s WALL (     374 calls)
     add_vuspsi   :    327.62s CPU    327.61s WALL (     374 calls)

     General routines
     calbec       :    436.33s CPU    436.76s WALL (     486 calls)
     fft          :      8.79s CPU      9.29s WALL (     336 calls)
     fftw         :   2593.49s CPU   2647.40s WALL (  221646 calls)

     Parallel routines
     fft_scatt_xy :    452.57s CPU    453.53s WALL (  221982 calls)
     fft_scatt_yz :    497.06s CPU    528.09s WALL (  221982 calls)

     PWSCF        :     1h32m CPU        1h34m WALL


   This run was terminated on:   5: 1:46  28Oct2021            

=------------------------------------------------------------------------------=
   JOB DONE.
=------------------------------------------------------------------------------=
Note: The following floating-point exceptions are signalling: IEEE_DIVIDE_BY_ZERO
Note: The following floating-point exceptions are signalling: IEEE_DIVIDE_BY_ZERO
Note: The following floating-point exceptions are signalling: IEEE_DIVIDE_BY_ZERO
Note: The following floating-point exceptions are signalling: IEEE_DIVIDE_BY_ZERO IEEE_UNDERFLOW_FLAG IEEE_DENORMAL
