
     Program PWSCF v.6.2 (svn rev. 13949:13950) starts on 28Oct2021 at  8: 6:39 

     This program is part of the open-source Quantum ESPRESSO suite
     for quantum simulation of materials; please cite
         "P. Giannozzi et al., J. Phys.:Condens. Matter 21 395502 (2009);
         "P. Giannozzi et al., J. Phys.:Condens. Matter 29 465901 (2017);
          URL http://www.quantum-espresso.org", 
     in publications or presentations arising from this work. More details at
     http://www.quantum-espresso.org/quote

     Parallel version (MPI), running on     4 processors

     MPI processes distributed on     1 nodes
     R & G space division:  proc/nbgrp/npool/nimage =       4
     Reading input from headeradd_supercell-012.in

     Current dimensions of program PWSCF are:
     Max number of different atomic species (ntypx) = 10
     Max number of k-points (npk) =  40000
     Max angular momentum in pseudopotentials (lmaxx) =  3
     Message from routine iosys:
     minimal I/O required, wf_collect reset to FALSE
               file Bi.pbe-dn-rrkjus_psl.1.0.0.UPF: wavefunction(s)  5D renormalized
               file O.pbe-rrkjus.UPF: wavefunction(s)  2S renormalized

     Subspace diagonalization in iterative solution of the eigenvalue problem:
     a serial algorithm will be used


     Parallelization info
     --------------------
     sticks:   dense  smooth     PW     G-vecs:    dense   smooth      PW
     Min        2104    2104    550               165101   165101   22036
     Max        2105    2105    551               165102   165102   22038
     Sum        8417    8417   2201               660405   660405   88147



     bravais-lattice index     =            0
     lattice parameter (alat)  =      19.6286  a.u.
     unit-cell volume          =    8346.2129 (a.u.)^3
     number of atoms/cell      =           96
     number of atomic types    =            3
     number of electrons       =       704.00
     number of Kohn-Sham states=          352
     kinetic-energy cutoff     =      70.0000  Ry
     charge density cutoff     =     280.0000  Ry
     convergence threshold     =      1.0E-09
     mixing beta               =       0.7000
     number of iterations used =            8  plain     mixing
     Exchange-correlation      =  SLA  PW   PBE  PBE ( 1  4  3  4 0 0)

     celldm(1)=  19.628585  celldm(2)=   0.000000  celldm(3)=   0.000000
     celldm(4)=   0.000000  celldm(5)=   0.000000  celldm(6)=   0.000000

     crystal axes: (cart. coord. in units of alat)
               a(1) = (   1.000000   0.000000   0.000000 )  
               a(2) = (  -0.006620   0.980010   0.000000 )  
               a(3) = (   0.496690   0.490005   1.126138 )  

     reciprocal axes: (cart. coord. in units 2 pi/alat)
               b(1) = (  1.000000  0.006755 -0.443995 )  
               b(2) = (  0.000000  1.020397 -0.443995 )  
               b(3) = (  0.000000 -0.000000  0.887990 )  


     PseudoPot. # 1 for Bi read from file:
     /home/uezono/pseudo/Bi.pbe-dn-rrkjus_psl.1.0.0.UPF
     MD5 check sum: f9abe7488ae443f53c935a63d0032572
     Pseudo is Ultrasoft + core correction, Zval = 15.0
     Generated using "atomic" code by A. Dal Corso  v.6.2.2
     Using radial grid of 1283 points,  6 beta functions with: 
                l(1) =   0
                l(2) =   0
                l(3) =   1
                l(4) =   1
                l(5) =   2
                l(6) =   2
     Q(r) pseudized with 0 coefficients 


     PseudoPot. # 2 for V  read from file:
     /home/uezono/pseudo/V.pbe-n-van.UPF
     MD5 check sum: ff5646be6093ca757d9525862f4bfff1
     Pseudo is Ultrasoft + core correction, Zval =  5.0
     Generated by new atomic code, or converted to UPF format
     Using radial grid of  853 points,  6 beta functions with: 
                l(1) =   0
                l(2) =   0
                l(3) =   1
                l(4) =   1
                l(5) =   2
                l(6) =   2
     Q(r) pseudized with  8 coefficients,  rinner =    1.000   1.000   1.000
                                                       1.000   1.000

     PseudoPot. # 3 for O  read from file:
     /home/uezono/pseudo/O.pbe-rrkjus.UPF
     MD5 check sum: fadcf19ee70a498d3030e2e79cf929a4
     Pseudo is Ultrasoft, Zval =  6.0
     Generated by new atomic code, or converted to UPF format
     Using radial grid of 1269 points,  4 beta functions with: 
                l(1) =   0
                l(2) =   0
                l(3) =   1
                l(4) =   1
     Q(r) pseudized with 0 coefficients 


     atomic species   valence    mass     pseudopotential
        Bi            15.00   208.98040     Bi( 1.00)
        V              5.00    50.94150     V ( 1.00)
        O              6.00    15.99940     O ( 1.00)

     No symmetry found



   Cartesian axes

     site n.     atom                  positions (alat units)
         1           Bi  tau(   1) = (   0.2475177   0.3675039   0.1503395  )
         2           Bi  tau(   2) = (   0.7475177   0.3675039   0.1503395  )
         3           Bi  tau(   3) = (   0.2442079   0.8575091   0.1503395  )
         4           Bi  tau(   4) = (   0.7442079   0.8575091   0.1503395  )
         5           Bi  tau(   5) = (   0.4958628   0.6125065   0.7134087  )
         6           Bi  tau(   6) = (   0.9958628   0.6125065   0.7134087  )
         7           Bi  tau(   7) = (   0.4925531   1.1025117   0.7134087  )
         8           Bi  tau(   8) = (   0.9925531   1.1025117   0.7134087  )
         9           Bi  tau(   9) = (   0.4975177   0.3675039   0.4127297  )
        10           Bi  tau(  10) = (   0.9975177   0.3675039   0.4127297  )
        11           Bi  tau(  11) = (   0.4942079   0.8575091   0.4127297  )
        12           Bi  tau(  12) = (   0.9942079   0.8575091   0.4127297  )
        13           Bi  tau(  13) = (   0.7458628   0.6125065   0.9757990  )
        14           Bi  tau(  14) = (   1.2458628   0.6125065   0.9757990  )
        15           Bi  tau(  15) = (   0.7425531   1.1025117   0.9757990  )
        16           Bi  tau(  16) = (   1.2425531   1.1025117   0.9757990  )
        17           V   tau(  17) = (   0.4991726   0.1225013   0.1463980  )
        18           V   tau(  18) = (   0.9991726   0.1225013   0.1463980  )
        19           V   tau(  19) = (   0.4958628   0.6125065   0.1463980  )
        20           V   tau(  20) = (   0.9958628   0.6125065   0.1463980  )
        21           V   tau(  21) = (   0.7475177   0.3675039   0.7094672  )
        22           V   tau(  22) = (   1.2475177   0.3675039   0.7094672  )
        23           V   tau(  23) = (   0.7442079   0.8575091   0.7094672  )
        24           V   tau(  24) = (   1.2442079   0.8575091   0.7094672  )
        25           V   tau(  25) = (   0.2458628   0.6125065   0.4166712  )
        26           V   tau(  26) = (   0.7458628   0.6125065   0.4166712  )
        27           V   tau(  27) = (   0.2425531   1.1025117   0.4166712  )
        28           V   tau(  28) = (   0.7425531   1.1025117   0.4166712  )
        29           V   tau(  29) = (   0.4942079   0.8575091   0.9797404  )
        30           V   tau(  30) = (   0.9942079   0.8575091   0.9797404  )
        31           V   tau(  31) = (   0.4908982   1.3475143   0.9797404  )
        32           V   tau(  32) = (   0.9908982   1.3475143   0.9797404  )
        33           O   tau(  33) = (   0.5711876   0.2483988   0.2335959  )
        34           O   tau(  34) = (   1.0715696   0.2487756   0.2344620  )
        35           O   tau(  35) = (   0.5682599   0.7387808   0.2344620  )
        36           O   tau(  36) = (   1.0682599   0.7387808   0.2344620  )
        37           O   tau(  37) = (   0.8199148   0.4937782   0.7975312  )
        38           O   tau(  38) = (   1.3199148   0.4937782   0.7975312  )
        39           O   tau(  39) = (   0.8166050   0.9837834   0.7975312  )
        40           O   tau(  40) = (   1.3166050   0.9837834   0.7975312  )
        41           O   tau(  41) = (   0.4234657   0.4862321   0.2344620  )
        42           O   tau(  42) = (   0.9234657   0.4862321   0.2344620  )
        43           O   tau(  43) = (   0.4201560   0.9762373   0.2344620  )
        44           O   tau(  44) = (   0.9201560   0.9762373   0.2344620  )
        45           O   tau(  45) = (   0.6718109   0.7312347   0.7975312  )
        46           O   tau(  46) = (   1.1718109   0.7312347   0.7975312  )
        47           O   tau(  47) = (   0.6685011   1.2212399   0.7975312  )
        48           O   tau(  48) = (   1.1685011   1.2212399   0.7975312  )
        49           O   tau(  49) = (   0.1734657   0.4862321   0.3286072  )
        50           O   tau(  50) = (   0.6734657   0.4862321   0.3286072  )
        51           O   tau(  51) = (   0.1701560   0.9762373   0.3286072  )
        52           O   tau(  52) = (   0.6701560   0.9762373   0.3286072  )
        53           O   tau(  53) = (   0.4218109   0.7312347   0.8916764  )
        54           O   tau(  54) = (   0.9218109   0.7312347   0.8916764  )
        55           O   tau(  55) = (   0.4185011   1.2212399   0.8916764  )
        56           O   tau(  56) = (   0.9185011   1.2212399   0.8916764  )
        57           O   tau(  57) = (   0.3215696   0.2487756   0.3286072  )
        58           O   tau(  58) = (   0.8215696   0.2487756   0.3286072  )
        59           O   tau(  59) = (   0.3182599   0.7387808   0.3286072  )
        60           O   tau(  60) = (   0.8182599   0.7387808   0.3286072  )
        61           O   tau(  61) = (   0.5699148   0.4937782   0.8916764  )
        62           O   tau(  62) = (   1.0699148   0.4937782   0.8916764  )
        63           O   tau(  63) = (   0.5666050   0.9837834   0.8916764  )
        64           O   tau(  64) = (   1.0666050   0.9837834   0.8916764  )
        65           O   tau(  65) = (   0.6257292   0.6766972   0.5059740  )
        66           O   tau(  66) = (   1.1257292   0.6766972   0.5059740  )
        67           O   tau(  67) = (   0.6224195   1.1667024   0.5059740  )
        68           O   tau(  68) = (   1.1224195   1.1667024   0.5059740  )
        69           O   tau(  69) = (   0.8740744   0.9216998   1.0690432  )
        70           O   tau(  70) = (   1.3740744   0.9216998   1.0690432  )
        71           O   tau(  71) = (   0.8707646   1.4117049   1.0690432  )
        72           O   tau(  72) = (   1.3707646   1.4117049   1.0690432  )
        73           O   tau(  73) = (   0.3659964   0.5483158   0.5059740  )
        74           O   tau(  74) = (   0.8659964   0.5483158   0.5059740  )
        75           O   tau(  75) = (   0.3626866   1.0383210   0.5059740  )
        76           O   tau(  76) = (   0.8626866   1.0383210   0.5059740  )
        77           O   tau(  77) = (   0.6143415   0.7933184   1.0690432  )
        78           O   tau(  78) = (   1.1143415   0.7933184   1.0690432  )
        79           O   tau(  79) = (   0.6110318   1.2833236   1.0690432  )
        80           O   tau(  80) = (   1.1110318   1.2833236   1.0690432  )
        81           O   tau(  81) = (   0.1193061   0.0583106   0.0570952  )
        82           O   tau(  82) = (   0.6193061   0.0583106   0.0570952  )
        83           O   tau(  83) = (   0.1159964   0.5483158   0.0570952  )
        84           O   tau(  84) = (   0.6159964   0.5483158   0.0570952  )
        85           O   tau(  85) = (   0.3676513   0.3033132   0.6201644  )
        86           O   tau(  86) = (   0.8676513   0.3033132   0.6201644  )
        87           O   tau(  87) = (   0.3643415   0.7933184   0.6201644  )
        88           O   tau(  88) = (   0.8643415   0.7933184   0.6201644  )
        89           O   tau(  89) = (   0.3790390   0.1866920   0.0570952  )
        90           O   tau(  90) = (   0.8790390   0.1866920   0.0570952  )
        91           O   tau(  91) = (   0.3757292   0.6766972   0.0570952  )
        92           O   tau(  92) = (   0.8757292   0.6766972   0.0570952  )
        93           O   tau(  93) = (   0.6273841   0.4316946   0.6201644  )
        94           O   tau(  94) = (   1.1273841   0.4316946   0.6201644  )
        95           O   tau(  95) = (   0.6240744   0.9216998   0.6201644  )
        96           O   tau(  96) = (   1.1240744   0.9216998   0.6201644  )

     number of k points=     4
                       cart. coord. in units 2pi/alat
        k(    1) = (   0.2500000   0.2567880   0.0000000), wk =   0.5000000
        k(    2) = (   0.2500000   0.2567880  -0.4439951), wk =   0.5000000
        k(    3) = (   0.2500000  -0.2534107   0.2219976), wk =   0.5000000
        k(    4) = (  -0.2500000   0.2534107   0.2219976), wk =   0.5000000

     Dense  grid:   660405 G-vectors     FFT dimensions: ( 108, 108, 144)

     Estimated max dynamical RAM per process >       2.39 GB

     Estimated total dynamical RAM >       9.55 GB

     Initial potential from superposition of free atoms

     starting charge  703.96725, renormalised to  704.00000
     Starting wfc are  544 randomized atomic wfcs

     total cpu time spent up to now is      110.2 secs

     Self-consistent Calculation

     iteration #  1     ecut=    70.00 Ry     beta= 0.70
     Davidson diagonalization with overlap
     ethr =  1.00E-02,  avg # of iterations =  1.0

     total cpu time spent up to now is      270.3 secs

     total energy              =   -4949.31595157 Ry
     Harris-Foulkes estimate   =   -4981.30002642 Ry
     estimated scf accuracy    <      40.93694246 Ry

     iteration #  2     ecut=    70.00 Ry     beta= 0.70
     Davidson diagonalization with overlap
     ethr =  5.81E-03,  avg # of iterations =  4.0

     total cpu time spent up to now is      563.4 secs

     total energy              =   -4901.63869782 Ry
     Harris-Foulkes estimate   =   -5036.12842107 Ry
     estimated scf accuracy    <     570.56526225 Ry

     iteration #  3     ecut=    70.00 Ry     beta= 0.70
     Davidson diagonalization with overlap
     ethr =  5.81E-03,  avg # of iterations =  6.2

     total cpu time spent up to now is      868.2 secs

     total energy              =   -4970.00360948 Ry
     Harris-Foulkes estimate   =   -4977.38680647 Ry
     estimated scf accuracy    <      23.91575283 Ry

     iteration #  4     ecut=    70.00 Ry     beta= 0.70
     Davidson diagonalization with overlap
     ethr =  3.40E-03,  avg # of iterations =  2.0

     total cpu time spent up to now is     1065.7 secs

     total energy              =   -4972.11105405 Ry
     Harris-Foulkes estimate   =   -4972.74505789 Ry
     estimated scf accuracy    <       4.40307792 Ry

     iteration #  5     ecut=    70.00 Ry     beta= 0.70
     Davidson diagonalization with overlap
     ethr =  6.25E-04,  avg # of iterations =  2.0

     total cpu time spent up to now is     1230.9 secs

     total energy              =   -4971.79267166 Ry
     Harris-Foulkes estimate   =   -4972.31637422 Ry
     estimated scf accuracy    <       2.09040250 Ry

     iteration #  6     ecut=    70.00 Ry     beta= 0.70
     Davidson diagonalization with overlap
     ethr =  2.97E-04,  avg # of iterations =  3.0

     total cpu time spent up to now is     1436.3 secs

     total energy              =   -4972.08265873 Ry
     Harris-Foulkes estimate   =   -4972.11812211 Ry
     estimated scf accuracy    <       0.06307221 Ry

     iteration #  7     ecut=    70.00 Ry     beta= 0.70
     Davidson diagonalization with overlap
     ethr =  8.96E-06,  avg # of iterations =  4.0

     total cpu time spent up to now is     1698.1 secs

     total energy              =   -4972.08949057 Ry
     Harris-Foulkes estimate   =   -4972.12854865 Ry
     estimated scf accuracy    <       0.12378669 Ry

     iteration #  8     ecut=    70.00 Ry     beta= 0.70
     Davidson diagonalization with overlap
     ethr =  8.96E-06,  avg # of iterations =  3.0

     total cpu time spent up to now is     1938.0 secs

     total energy              =   -4972.09901974 Ry
     Harris-Foulkes estimate   =   -4972.11684887 Ry
     estimated scf accuracy    <       0.05939677 Ry

     iteration #  9     ecut=    70.00 Ry     beta= 0.70
     Davidson diagonalization with overlap
     ethr =  8.44E-06,  avg # of iterations =  3.0

     total cpu time spent up to now is     2168.3 secs

     total energy              =   -4972.10884593 Ry
     Harris-Foulkes estimate   =   -4972.11377400 Ry
     estimated scf accuracy    <       0.02930415 Ry

     iteration # 10     ecut=    70.00 Ry     beta= 0.70
     Davidson diagonalization with overlap
     ethr =  4.16E-06,  avg # of iterations =  2.0

     total cpu time spent up to now is     2338.5 secs

     total energy              =   -4972.10767434 Ry
     Harris-Foulkes estimate   =   -4972.11065307 Ry
     estimated scf accuracy    <       0.01045395 Ry

     iteration # 11     ecut=    70.00 Ry     beta= 0.70
     Davidson diagonalization with overlap
     ethr =  1.48E-06,  avg # of iterations =  3.0

     total cpu time spent up to now is     2545.7 secs

     total energy              =   -4972.10921585 Ry
     Harris-Foulkes estimate   =   -4972.10931460 Ry
     estimated scf accuracy    <       0.00030638 Ry

     iteration # 12     ecut=    70.00 Ry     beta= 0.70
     Davidson diagonalization with overlap
     ethr =  4.35E-08,  avg # of iterations =  3.2

     total cpu time spent up to now is     2791.2 secs

     total energy              =   -4972.10927058 Ry
     Harris-Foulkes estimate   =   -4972.10933961 Ry
     estimated scf accuracy    <       0.00027701 Ry

     iteration # 13     ecut=    70.00 Ry     beta= 0.70
     Davidson diagonalization with overlap
     ethr =  3.93E-08,  avg # of iterations =  3.0

     total cpu time spent up to now is     3002.9 secs

     total energy              =   -4972.10929157 Ry
     Harris-Foulkes estimate   =   -4972.10931077 Ry
     estimated scf accuracy    <       0.00006770 Ry

     iteration # 14     ecut=    70.00 Ry     beta= 0.70
     Davidson diagonalization with overlap
     ethr =  9.62E-09,  avg # of iterations =  3.0

     total cpu time spent up to now is     3215.5 secs

     total energy              =   -4972.10929993 Ry
     Harris-Foulkes estimate   =   -4972.10930209 Ry
     estimated scf accuracy    <       0.00000560 Ry

     iteration # 15     ecut=    70.00 Ry     beta= 0.70
     Davidson diagonalization with overlap
     ethr =  7.95E-10,  avg # of iterations =  3.0

     total cpu time spent up to now is     3471.3 secs

     total energy              =   -4972.10930018 Ry
     Harris-Foulkes estimate   =   -4972.10930264 Ry
     estimated scf accuracy    <       0.00000854 Ry

     iteration # 16     ecut=    70.00 Ry     beta= 0.70
     Davidson diagonalization with overlap
     ethr =  7.95E-10,  avg # of iterations =  3.0

     total cpu time spent up to now is     3702.5 secs

     total energy              =   -4972.10930125 Ry
     Harris-Foulkes estimate   =   -4972.10930150 Ry
     estimated scf accuracy    <       0.00000063 Ry

     iteration # 17     ecut=    70.00 Ry     beta= 0.70
     Davidson diagonalization with overlap
     ethr =  8.88E-11,  avg # of iterations =  3.0

     total cpu time spent up to now is     3945.1 secs

     total energy              =   -4972.10930134 Ry
     Harris-Foulkes estimate   =   -4972.10930152 Ry
     estimated scf accuracy    <       0.00000078 Ry

     iteration # 18     ecut=    70.00 Ry     beta= 0.70
     Davidson diagonalization with overlap
     ethr =  8.88E-11,  avg # of iterations =  3.0

     total cpu time spent up to now is     4166.3 secs

     total energy              =   -4972.10930141 Ry
     Harris-Foulkes estimate   =   -4972.10930145 Ry
     estimated scf accuracy    <       0.00000012 Ry

     iteration # 19     ecut=    70.00 Ry     beta= 0.70
     Davidson diagonalization with overlap
     ethr =  1.74E-11,  avg # of iterations =  3.0

     total cpu time spent up to now is     4392.7 secs

     total energy              =   -4972.10930143 Ry
     Harris-Foulkes estimate   =   -4972.10930144 Ry
     estimated scf accuracy    <       0.00000003 Ry

     iteration # 20     ecut=    70.00 Ry     beta= 0.70
     Davidson diagonalization with overlap
     ethr =  3.60E-12,  avg # of iterations =  3.0

     total cpu time spent up to now is     4619.8 secs

     total energy              =   -4972.10930143 Ry
     Harris-Foulkes estimate   =   -4972.10930144 Ry
     estimated scf accuracy    <          7.7E-09 Ry

     iteration # 21     ecut=    70.00 Ry     beta= 0.70
     Davidson diagonalization with overlap
     ethr =  1.09E-12,  avg # of iterations =  3.0

     total cpu time spent up to now is     4846.2 secs

     total energy              =   -4972.10930143 Ry
     Harris-Foulkes estimate   =   -4972.10930144 Ry
     estimated scf accuracy    <          2.2E-09 Ry

     iteration # 22     ecut=    70.00 Ry     beta= 0.70
     Davidson diagonalization with overlap
     ethr =  3.11E-13,  avg # of iterations =  3.0

     total cpu time spent up to now is     5075.4 secs

     total energy              =   -4972.10930143 Ry
     Harris-Foulkes estimate   =   -4972.10930144 Ry
     estimated scf accuracy    <          1.1E-09 Ry

     iteration # 23     ecut=    70.00 Ry     beta= 0.70
     Davidson diagonalization with overlap
     ethr =  1.50E-13,  avg # of iterations =  3.0

     total cpu time spent up to now is     5298.6 secs

     End of self-consistent calculation

          k = 0.2500 0.2568 0.0000 ( 82568 PWs)   bands (ev):

   -14.4919 -14.4881 -14.4866 -14.4846 -14.4845 -14.4828 -14.4824 -14.4818
   -14.4789 -14.4710 -14.4682 -14.4672 -14.4651 -14.4643 -14.4588 -14.4577
   -14.4526 -14.4515 -14.4485 -14.4369 -14.4358 -14.4314 -14.4305 -14.4254
   -14.4246 -14.4142 -14.4123 -14.4101 -14.4060 -14.4050 -14.4047 -14.4040
   -14.4023 -14.4017 -14.3991 -14.3986 -14.3981 -14.3969 -14.3964 -14.3954
   -14.3948 -14.3934 -14.3925 -14.3923 -14.3913 -14.3907 -14.3902 -14.3892
   -14.3882 -14.3866 -14.3844 -14.3837 -14.3822 -14.3812 -14.3808 -14.3803
   -14.3788 -14.3751 -14.3737 -14.3701 -14.3695 -14.3676 -14.3649 -14.3630
   -14.3615 -14.3600 -14.3593 -14.3581 -14.3563 -14.3550 -14.3528 -14.3512
   -14.3507 -14.3494 -14.3483 -14.3469 -14.3459 -14.3425 -14.3412 -14.3366
   -10.4958 -10.2963 -10.1662 -10.1657 -10.1208 -10.1199  -9.9299  -9.8056
    -9.6774  -9.6053  -9.6043  -9.6001  -9.5994  -9.5455  -9.4701  -9.3943
    -9.3601  -9.3222  -9.3191  -9.3141  -9.3019  -9.2804  -9.2788  -9.2527
    -9.2432  -9.1717  -9.1493  -9.1150  -9.1137  -9.0842  -9.0834  -9.0664
    -9.0633  -9.0425  -9.0409  -9.0386  -8.9750  -8.9727  -8.9529  -8.9449
    -8.9358  -8.9341  -8.9240  -8.8995  -8.8928  -8.8914  -8.8884  -8.8635
    -8.8257  -8.8251  -8.8231  -8.8220  -8.8201  -8.8049  -8.7848  -8.7822
    -8.7754  -8.7533  -8.7139  -8.7057  -8.7018  -8.6876  -8.6832  -8.6580
    -2.2087  -2.0743  -2.0736  -1.9656  -1.9032  -1.9013  -1.8936  -1.7952
    -1.5989  -1.5540  -1.5518  -1.5046  -1.4736  -1.3607  -1.3583  -1.3059
     2.4195   2.4641   2.4977   2.4991   2.5541   2.5547   2.6750   2.7350
     2.7362   2.7404   2.7499   2.7518   2.7643   2.7705   2.7752   2.8348
     2.8359   2.9405   2.9523   2.9758   2.9764   3.0038   3.1131   3.1800
     3.1808   3.2217   3.2513   3.2526   3.2808   3.3614   3.3865   3.3867
     3.4148   3.4214   3.4224   3.5344   3.5353   3.6269   3.6430   3.7104
     3.7119   3.7679   3.7764   3.7906   3.8969   3.8979   3.8985   3.9699
     3.9955   4.0186   4.0273   4.0413   4.0426   4.0430   4.0447   4.1461
     4.1867   4.2085   4.2098   4.2349   4.2388   4.2402   4.2449   4.2672
     4.2840   4.2860   4.2995   4.3510   4.3650   4.3688   4.3708   4.3756
     4.3821   4.3834   4.4053   4.4083   4.4412   4.4868   4.4925   4.4936
     4.5355   4.5375   4.6135   4.6338   4.6350   4.6436   4.6462   4.6720
     4.6734   4.6801   4.6962   4.7007   4.7134   4.7216   4.7666   4.7695
     4.7712   4.8411   4.8611   4.8617   4.9192   4.9343   5.0014   5.0075
     5.0084   5.0557   5.0570   5.0927   5.0936   5.1127   5.1227   5.1241
     5.1456   5.1461   5.2148   5.2739   5.2863   5.2877   5.2882   5.3618
     5.3683   5.3697   5.3936   5.3982   5.4239   5.5202   5.5210   5.5460
     5.6498   5.7452   5.7469   5.7518   5.8378   5.8538   5.8547   5.8697
     5.8911   5.9896   5.9927   5.9936   6.0040   6.0648   6.0652   6.1334
     6.1359   6.1560   6.2487   6.2710   6.2723   6.2738   6.2749   6.2761
     6.2852   6.2864   6.2962   6.4108   6.4128   6.4137   6.4196   6.4240
     6.4638   6.4646   6.4737   6.4746   6.4932   6.5826   6.5889   6.5924
     6.6963   6.6983   6.7257   6.7911   6.7924   6.7948   6.8127   6.8664
     6.8742   6.8785   6.8797   6.9327   6.9412   6.9463   6.9486   6.9898
     6.9912   7.0641   7.1483   7.2879   7.2900   7.3679   7.3703   7.4769

          k = 0.2500 0.2568-0.4440 ( 82488 PWs)   bands (ev):

   -14.4919 -14.4880 -14.4868 -14.4846 -14.4840 -14.4836 -14.4834 -14.4787
   -14.4773 -14.4734 -14.4729 -14.4614 -14.4609 -14.4582 -14.4567 -14.4558
   -14.4536 -14.4530 -14.4520 -14.4495 -14.4370 -14.4323 -14.4316 -14.4235
   -14.4223 -14.4170 -14.4158 -14.4151 -14.4088 -14.4082 -14.4039 -14.4033
   -14.4025 -14.4009 -14.4001 -14.3984 -14.3978 -14.3968 -14.3961 -14.3960
   -14.3954 -14.3927 -14.3915 -14.3912 -14.3908 -14.3898 -14.3890 -14.3867
   -14.3855 -14.3841 -14.3838 -14.3830 -14.3805 -14.3773 -14.3754 -14.3747
   -14.3731 -14.3721 -14.3716 -14.3702 -14.3698 -14.3693 -14.3691 -14.3685
   -14.3631 -14.3625 -14.3615 -14.3589 -14.3548 -14.3541 -14.3533 -14.3525
   -14.3511 -14.3501 -14.3489 -14.3485 -14.3479 -14.3426 -14.3412 -14.3360
   -10.4125 -10.4118 -10.2240 -10.1947 -10.0984 -10.0192  -9.8743  -9.8737
    -9.6769  -9.6006  -9.5595  -9.5153  -9.5092  -9.5082  -9.4920  -9.4890
    -9.4413  -9.4398  -9.3938  -9.3926  -9.2304  -9.2254  -9.2244  -9.1956
    -9.1942  -9.1706  -9.1680  -9.1515  -9.1414  -9.1387  -9.1237  -9.0865
    -9.0668  -9.0660  -9.0500  -8.9817  -8.9747  -8.9647  -8.9108  -8.9077
    -8.9002  -8.8987  -8.8946  -8.8900  -8.8879  -8.8810  -8.8769  -8.8735
    -8.8523  -8.8401  -8.8313  -8.8297  -8.8163  -8.8147  -8.8003  -8.7861
    -8.7848  -8.7642  -8.7190  -8.6970  -8.6921  -8.6863  -8.6836  -8.6796
    -2.1225  -2.0994  -2.0987  -2.0227  -1.9822  -1.8523  -1.8508  -1.7735
    -1.6583  -1.5457  -1.5436  -1.4964  -1.3914  -1.3788  -1.3768  -1.3311
     2.4962   2.4996   2.5656   2.5681   2.5697   2.5717   2.6228   2.6605
     2.6623   2.7254   2.7258   2.7508   2.7519   2.7768   2.8683   2.8693
     2.8700   2.8738   2.8778   2.8797   2.9145   3.0337   3.0929   3.1334
     3.1399   3.1408   3.2568   3.2595   3.2720   3.2856   3.2979   3.2984
     3.3717   3.4347   3.4608   3.4616   3.6023   3.6035   3.6713   3.7706
     3.7979   3.8282   3.9026   3.9039   3.9860   3.9864   4.0147   4.0359
     4.0469   4.0662   4.0832   4.0941   4.1171   4.1182   4.1497   4.1697
     4.1707   4.2025   4.2216   4.2226   4.2232   4.2368   4.2643   4.2845
     4.2852   4.2966   4.2981   4.2989   4.3193   4.3389   4.3397   4.3417
     4.4065   4.4305   4.4314   4.4335   4.4727   4.4736   4.4745   4.4776
     4.4808   4.4819   4.5261   4.5326   4.5510   4.5522   4.6017   4.6246
     4.6252   4.6411   4.6859   4.6865   4.7300   4.7924   4.8219   4.8229
     4.8313   4.8327   4.8645   4.8778   4.8784   4.8858   4.8868   4.8967
     4.8984   4.9906   5.0356   5.0382   5.0928   5.1057   5.1165   5.1529
     5.1651   5.1654   5.2046   5.2257   5.2456   5.2462   5.2550   5.2754
     5.3078   5.3363   5.3374   5.4454   5.4711   5.5705   5.5712   5.6568
     5.7131   5.7953   5.7995   5.8009   5.8121   5.8865   5.8871   5.9154
     5.9795   6.0128   6.0310   6.0313   6.0555   6.0662   6.0673   6.0686
     6.1157   6.1611   6.1696   6.1710   6.1884   6.2017   6.2029   6.2749
     6.3434   6.3553   6.3565   6.4012   6.4036   6.4092   6.4914   6.4922
     6.5019   6.5134   6.5234   6.5269   6.5767   6.5879   6.6169   6.6369
     6.6374   6.6579   6.6858   6.6863   6.7868   6.7893   6.8011   6.8023
     6.8254   6.8796   6.8813   6.9339   6.9355   6.9550   6.9557   6.9718
     7.0236   7.0309   7.0886   7.1802   7.3426   7.3446   7.4397   7.5541

          k = 0.2500-0.2534 0.2220 ( 82555 PWs)   bands (ev):

   -14.4920 -14.4885 -14.4861 -14.4858 -14.4846 -14.4839 -14.4828 -14.4782
   -14.4769 -14.4730 -14.4713 -14.4639 -14.4632 -14.4606 -14.4598 -14.4573
   -14.4546 -14.4510 -14.4482 -14.4429 -14.4372 -14.4315 -14.4294 -14.4258
   -14.4236 -14.4163 -14.4127 -14.4114 -14.4082 -14.4077 -14.4065 -14.4039
   -14.4029 -14.4005 -14.3986 -14.3978 -14.3973 -14.3971 -14.3960 -14.3952
   -14.3947 -14.3925 -14.3918 -14.3914 -14.3903 -14.3902 -14.3895 -14.3889
   -14.3880 -14.3862 -14.3842 -14.3838 -14.3834 -14.3802 -14.3770 -14.3760
   -14.3746 -14.3736 -14.3721 -14.3719 -14.3695 -14.3684 -14.3673 -14.3654
   -14.3623 -14.3615 -14.3594 -14.3578 -14.3560 -14.3552 -14.3527 -14.3521
   -14.3509 -14.3501 -14.3485 -14.3479 -14.3469 -14.3421 -14.3405 -14.3368
   -10.4779 -10.3427 -10.2009 -10.1568 -10.1061 -10.0293  -9.9444  -9.8712
    -9.6909  -9.6128  -9.6081  -9.5891  -9.5735  -9.4717  -9.4142  -9.4083
    -9.4063  -9.3901  -9.3826  -9.3606  -9.2472  -9.2332  -9.2227  -9.2017
    -9.1966  -9.1786  -9.1662  -9.1337  -9.1219  -9.1193  -9.1112  -9.1103
    -9.0629  -9.0579  -9.0567  -9.0236  -9.0215  -9.0097  -8.9362  -8.9358
    -8.9314  -8.9151  -8.9133  -8.8901  -8.8863  -8.8855  -8.8496  -8.8479
    -8.8420  -8.8396  -8.8075  -8.7959  -8.7948  -8.7835  -8.7830  -8.7712
    -8.7683  -8.7629  -8.7582  -8.7317  -8.7101  -8.7037  -8.6757  -8.6485
    -2.1761  -2.1133  -2.0312  -2.0121  -1.9601  -1.8808  -1.8260  -1.8185
    -1.6241  -1.5614  -1.5204  -1.5114  -1.4299  -1.3977  -1.3360  -1.3242
     2.4306   2.4817   2.5235   2.5557   2.5779   2.5794   2.5823   2.6383
     2.6911   2.7001   2.7253   2.7412   2.7823   2.7904   2.8048   2.8409
     2.8418   2.8598   3.0157   3.0333   3.0560   3.0830   3.1174   3.1264
     3.1426   3.1922   3.1944   3.2119   3.2339   3.2541   3.3122   3.3723
     3.5129   3.5258   3.5411   3.5500   3.5762   3.6012   3.6513   3.6557
     3.6882   3.6969   3.8607   3.8734   3.9114   3.9335   3.9453   3.9532
     3.9849   3.9865   4.0122   4.0476   4.0983   4.1153   4.1283   4.1407
     4.1478   4.1950   4.2021   4.2048   4.2120   4.2313   4.2335   4.2419
     4.2496   4.2519   4.2929   4.3076   4.3410   4.3539   4.3567   4.3818
     4.4237   4.4259   4.4327   4.4447   4.4524   4.4685   4.4972   4.5294
     4.5384   4.5401   4.5412   4.5646   4.5727   4.6678   4.6690   4.6823
     4.6885   4.7121   4.7343   4.7384   4.7503   4.7532   4.7569   4.7637
     4.7912   4.7977   4.8717   4.8751   4.8776   4.9044   4.9332   4.9655
     4.9774   4.9989   5.0316   5.0502   5.0929   5.0956   5.1239   5.1778
     5.1852   5.2023   5.2302   5.2571   5.2662   5.2690   5.2963   5.3006
     5.3746   5.3759   5.4496   5.4658   5.5042   5.5400   5.5441   5.6074
     5.6761   5.6880   5.6929   5.7133   5.7219   5.7490   5.8083   5.8550
     5.8894   5.9409   5.9615   5.9764   5.9884   6.0381   6.0482   6.1433
     6.1519   6.1996   6.2279   6.2533   6.2731   6.2750   6.2800   6.3114
     6.3355   6.3534   6.3586   6.3783   6.4233   6.4329   6.4344   6.4789
     6.4795   6.5009   6.5544   6.5680   6.6148   6.6215   6.6623   6.6654
     6.6904   6.6917   6.6942   6.7219   6.7261   6.7322   6.7476   6.7903
     6.8311   6.8698   6.8878   6.9220   6.9373   6.9418   6.9563   6.9794
     6.9820   7.0789   7.1196   7.2379   7.2879   7.3054   7.4624   7.4685

          k =-0.2500 0.2534 0.2220 ( 82555 PWs)   bands (ev):

   -14.4920 -14.4885 -14.4862 -14.4855 -14.4850 -14.4838 -14.4827 -14.4783
   -14.4768 -14.4734 -14.4710 -14.4640 -14.4632 -14.4608 -14.4593 -14.4569
   -14.4551 -14.4509 -14.4485 -14.4428 -14.4371 -14.4319 -14.4290 -14.4259
   -14.4237 -14.4159 -14.4130 -14.4114 -14.4080 -14.4077 -14.4065 -14.4038
   -14.4027 -14.4006 -14.3987 -14.3978 -14.3972 -14.3969 -14.3962 -14.3952
   -14.3945 -14.3923 -14.3917 -14.3916 -14.3906 -14.3901 -14.3896 -14.3893
   -14.3879 -14.3857 -14.3845 -14.3839 -14.3832 -14.3799 -14.3779 -14.3754
   -14.3751 -14.3737 -14.3717 -14.3714 -14.3698 -14.3686 -14.3664 -14.3662
   -14.3627 -14.3611 -14.3593 -14.3576 -14.3563 -14.3546 -14.3537 -14.3518
   -14.3505 -14.3495 -14.3493 -14.3480 -14.3468 -14.3422 -14.3404 -14.3369
   -10.4779 -10.3427 -10.2009 -10.1569 -10.1061 -10.0292  -9.9444  -9.8711
    -9.6910  -9.6127  -9.6077  -9.5890  -9.5737  -9.4717  -9.4141  -9.4082
    -9.4064  -9.3903  -9.3829  -9.3604  -9.2475  -9.2334  -9.2224  -9.2017
    -9.1968  -9.1785  -9.1654  -9.1337  -9.1224  -9.1191  -9.1114  -9.1105
    -9.0628  -9.0575  -9.0565  -9.0235  -9.0214  -9.0097  -8.9375  -8.9353
    -8.9313  -8.9149  -8.9136  -8.8894  -8.8863  -8.8858  -8.8493  -8.8480
    -8.8424  -8.8392  -8.8076  -8.7957  -8.7951  -8.7835  -8.7829  -8.7714
    -8.7682  -8.7628  -8.7581  -8.7318  -8.7102  -8.7036  -8.6757  -8.6485
    -2.1762  -2.1133  -2.0313  -2.0119  -1.9605  -1.8806  -1.8250  -1.8189
    -1.6249  -1.5612  -1.5204  -1.5113  -1.4300  -1.3976  -1.3362  -1.3240
     2.4307   2.4817   2.5230   2.5562   2.5784   2.5797   2.5823   2.6380
     2.6909   2.7002   2.7254   2.7407   2.7826   2.7902   2.8051   2.8406
     2.8419   2.8597   3.0154   3.0335   3.0564   3.0832   3.1172   3.1267
     3.1425   3.1920   3.1942   3.2122   3.2335   3.2541   3.3122   3.3722
     3.5125   3.5259   3.5409   3.5501   3.5760   3.6013   3.6513   3.6566
     3.6881   3.6972   3.8613   3.8733   3.9121   3.9340   3.9446   3.9529
     3.9845   3.9864   4.0115   4.0474   4.0982   4.1147   4.1278   4.1405
     4.1488   4.1954   4.2019   4.2046   4.2114   4.2307   4.2334   4.2412
     4.2487   4.2527   4.2941   4.3076   4.3416   4.3545   4.3569   4.3832
     4.4239   4.4264   4.4329   4.4449   4.4527   4.4678   4.4965   4.5299
     4.5381   4.5401   4.5406   4.5643   4.5721   4.6680   4.6689   4.6827
     4.6884   4.7129   4.7343   4.7378   4.7502   4.7525   4.7569   4.7637
     4.7914   4.7982   4.8717   4.8750   4.8780   4.9044   4.9327   4.9651
     4.9771   4.9990   5.0320   5.0498   5.0935   5.0958   5.1242   5.1776
     5.1849   5.2022   5.2302   5.2565   5.2667   5.2690   5.2962   5.3006
     5.3744   5.3767   5.4495   5.4666   5.5042   5.5404   5.5446   5.6071
     5.6754   5.6882   5.6921   5.7132   5.7220   5.7491   5.8088   5.8540
     5.8900   5.9403   5.9615   5.9759   5.9887   6.0378   6.0482   6.1430
     6.1517   6.2004   6.2274   6.2535   6.2731   6.2743   6.2797   6.3118
     6.3354   6.3534   6.3589   6.3786   6.4238   6.4327   6.4345   6.4789
     6.4796   6.5011   6.5550   6.5678   6.6152   6.6218   6.6624   6.6653
     6.6899   6.6916   6.6940   6.7219   6.7266   6.7323   6.7475   6.7900
     6.8310   6.8696   6.8874   6.9216   6.9372   6.9419   6.9566   6.9793
     6.9817   7.0795   7.1198   7.2379   7.2880   7.3053   7.4628   7.4680

     highest occupied level (ev):     7.5541

!    total energy              =   -4972.10930143 Ry
     Harris-Foulkes estimate   =   -4972.10930144 Ry
     estimated scf accuracy    <          2.6E-10 Ry

     The total energy is the sum of the following terms:

     one-electron contribution =   -1193.04424368 Ry
     hartree contribution      =    1074.09987327 Ry
     xc contribution           =   -1297.70410183 Ry
     ewald contribution        =   -3555.46082920 Ry

     convergence has been achieved in  23 iterations

     Forces acting on atoms (cartesian axes, Ry/au):

     atom    1 type  1   force =     0.00023822   -0.00036847   -0.01419133
     atom    2 type  1   force =     0.00036701    0.00011081   -0.01441552
     atom    3 type  1   force =     0.00033952    0.00029951   -0.01385375
     atom    4 type  1   force =    -0.00024475    0.00030442   -0.01416157
     atom    5 type  1   force =     0.00001477    0.00007051   -0.01372097
     atom    6 type  1   force =     0.00000149    0.00003541   -0.01371268
     atom    7 type  1   force =    -0.00005384   -0.00007927   -0.01374314
     atom    8 type  1   force =     0.00002372   -0.00002511   -0.01374699
     atom    9 type  1   force =    -0.00035614    0.00010014    0.01389835
     atom   10 type  1   force =     0.00015451    0.00003882    0.01387295
     atom   11 type  1   force =    -0.00021712    0.00024624    0.01352170
     atom   12 type  1   force =     0.00005579    0.00000746    0.01379757
     atom   13 type  1   force =     0.00021713    0.00005249    0.01421849
     atom   14 type  1   force =    -0.00022405   -0.00007768    0.01420207
     atom   15 type  1   force =     0.00005240   -0.00001185    0.01391296
     atom   16 type  1   force =    -0.00004567    0.00003341    0.01387348
     atom   17 type  2   force =    -0.00234566   -0.00428731    0.00045155
     atom   18 type  2   force =     0.00011384   -0.00008465    0.00446216
     atom   19 type  2   force =     0.00001525    0.00022107    0.00445149
     atom   20 type  2   force =     0.00007532    0.00014932    0.00443194
     atom   21 type  2   force =     0.00013395   -0.00001340    0.00470129
     atom   22 type  2   force =    -0.00013343    0.00008300    0.00468376
     atom   23 type  2   force =    -0.00001412   -0.00002935    0.00460173
     atom   24 type  2   force =    -0.00002758   -0.00002888    0.00457722
     atom   25 type  2   force =    -0.00026941    0.00014923   -0.00476135
     atom   26 type  2   force =     0.00010988    0.00027241   -0.00441011
     atom   27 type  2   force =     0.00009090   -0.00015936   -0.00463205
     atom   28 type  2   force =     0.00037227   -0.00059568   -0.00438031
     atom   29 type  2   force =     0.00012152   -0.00009915   -0.00456445
     atom   30 type  2   force =     0.00001490   -0.00014686   -0.00437687
     atom   31 type  2   force =     0.00002151    0.00004696   -0.00448855
     atom   32 type  2   force =     0.00000626    0.00015222   -0.00433478
     atom   33 type  3   force =     0.00303352    0.00454319    0.00572129
     atom   34 type  3   force =    -0.00020289   -0.00125910    0.00024182
     atom   35 type  3   force =    -0.00019843   -0.00141648    0.00016375
     atom   36 type  3   force =    -0.00025499   -0.00136135    0.00021579
     atom   37 type  3   force =    -0.00019973   -0.00136965    0.00005555
     atom   38 type  3   force =    -0.00018984   -0.00136877    0.00005676
     atom   39 type  3   force =    -0.00017306   -0.00127260    0.00014275
     atom   40 type  3   force =    -0.00013915   -0.00125621    0.00015981
     atom   41 type  3   force =    -0.00025259    0.00151958    0.00041172
     atom   42 type  3   force =    -0.00050221    0.00151598    0.00021226
     atom   43 type  3   force =    -0.00082371    0.00071555    0.00121939
     atom   44 type  3   force =    -0.00033671    0.00171740    0.00026521
     atom   45 type  3   force =    -0.00035450    0.00173827    0.00013535
     atom   46 type  3   force =    -0.00033788    0.00173426    0.00013485
     atom   47 type  3   force =    -0.00031978    0.00174058    0.00014507
     atom   48 type  3   force =    -0.00030291    0.00173537    0.00015802
     atom   49 type  3   force =     0.00015542    0.00138744   -0.00002131
     atom   50 type  3   force =    -0.00009732    0.00077200   -0.00036041
     atom   51 type  3   force =     0.00009846    0.00129842   -0.00009221
     atom   52 type  3   force =     0.00028007    0.00156449    0.00000034
     atom   53 type  3   force =     0.00024225    0.00134054   -0.00019275
     atom   54 type  3   force =     0.00016442    0.00125689   -0.00025370
     atom   55 type  3   force =     0.00015219    0.00123469   -0.00022621
     atom   56 type  3   force =     0.00013105    0.00121226   -0.00023867
     atom   57 type  3   force =     0.00041075   -0.00151404   -0.00004561
     atom   58 type  3   force =    -0.00024116   -0.00169687   -0.00041044
     atom   59 type  3   force =     0.00026820   -0.00186673   -0.00010831
     atom   60 type  3   force =     0.00029782   -0.00181737   -0.00007318
     atom   61 type  3   force =     0.00028034   -0.00173066   -0.00026516
     atom   62 type  3   force =     0.00034443   -0.00167483   -0.00031058
     atom   63 type  3   force =     0.00032050   -0.00169116   -0.00023020
     atom   64 type  3   force =     0.00037085   -0.00162055   -0.00027451
     atom   65 type  3   force =    -0.00862663    0.00526723    0.00542892
     atom   66 type  3   force =    -0.00867117    0.00535028    0.00541323
     atom   67 type  3   force =    -0.00891692    0.00555619    0.00514013
     atom   68 type  3   force =    -0.00879583    0.00541882    0.00547595
     atom   69 type  3   force =    -0.00877139    0.00547467    0.00543906
     atom   70 type  3   force =    -0.00890789    0.00537749    0.00566338
     atom   71 type  3   force =    -0.00875089    0.00527925    0.00535396
     atom   72 type  3   force =    -0.00871382    0.00535624    0.00544838
     atom   73 type  3   force =     0.00889410   -0.00555899    0.00547925
     atom   74 type  3   force =     0.00837174   -0.00508746    0.00543774
     atom   75 type  3   force =     0.00839615   -0.00505752    0.00552837
     atom   76 type  3   force =     0.00830501   -0.00500885    0.00540243
     atom   77 type  3   force =     0.00833507   -0.00504903    0.00542961
     atom   78 type  3   force =     0.00847267   -0.00495064    0.00530705
     atom   79 type  3   force =     0.00837624   -0.00509914    0.00542745
     atom   80 type  3   force =     0.00844150   -0.00519612    0.00543689
     atom   81 type  3   force =     0.00863388   -0.00534746   -0.00541981
     atom   82 type  3   force =     0.00967362   -0.00614369   -0.00617902
     atom   83 type  3   force =     0.00867582   -0.00532403   -0.00544854
     atom   84 type  3   force =     0.00881854   -0.00542922   -0.00543550
     atom   85 type  3   force =     0.00898343   -0.00534136   -0.00573730
     atom   86 type  3   force =     0.00871020   -0.00537183   -0.00548016
     atom   87 type  3   force =     0.00873917   -0.00541381   -0.00545730
     atom   88 type  3   force =     0.00875426   -0.00538230   -0.00548640
     atom   89 type  3   force =    -0.00963980    0.00550493   -0.00617297
     atom   90 type  3   force =    -0.00845557    0.00521953   -0.00544504
     atom   91 type  3   force =    -0.00834951    0.00503280   -0.00542237
     atom   92 type  3   force =    -0.00835907    0.00503546   -0.00546346
     atom   93 type  3   force =    -0.00862959    0.00509064   -0.00571958
     atom   94 type  3   force =    -0.00838938    0.00508183   -0.00548698
     atom   95 type  3   force =    -0.00840495    0.00513862   -0.00546809
     atom   96 type  3   force =    -0.00843081    0.00510055   -0.00549001

     Total force =     0.088591     Total SCF correction =     0.000060


     Computing stress (Cartesian axis) and pressure

          total   stress  (Ry/bohr**3)                   (kbar)     P=   40.71
   0.00029156   0.00000226   0.00000042         42.89      0.33      0.06
   0.00000226   0.00026812   0.00000074          0.33     39.44      0.11
   0.00000042   0.00000074   0.00027062          0.06      0.11     39.81


     init_run     :    107.87s CPU    109.87s WALL (       1 calls)
     electrons    :   5092.74s CPU   5188.37s WALL (       1 calls)
     forces       :     34.56s CPU     35.03s WALL (       1 calls)
     stress       :    299.06s CPU    300.18s WALL (       1 calls)

     Called by init_run:
     wfcinit      :     94.32s CPU     96.04s WALL (       1 calls)
     potinit      :      4.46s CPU      4.47s WALL (       1 calls)

     Called by electrons:
     c_bands      :   4394.03s CPU   4469.31s WALL (      23 calls)
     sum_band     :    661.89s CPU    676.25s WALL (      23 calls)
     v_of_rho     :      9.24s CPU      9.50s WALL (      24 calls)
     newd         :     26.35s CPU     32.27s WALL (      24 calls)
     mix_rho      :      2.48s CPU      2.51s WALL (      23 calls)

     Called by c_bands:
     init_us_2    :     25.91s CPU     26.04s WALL (     196 calls)
     cegterg      :   4318.62s CPU   4393.84s WALL (      92 calls)

     Called by sum_band:
     sum_band:bec :      0.22s CPU      0.21s WALL (      92 calls)
     addusdens    :     38.04s CPU     44.14s WALL (      23 calls)

     Called by *egterg:
     h_psi        :   3189.66s CPU   3236.24s WALL (     374 calls)
     s_psi        :    325.51s CPU    325.52s WALL (     374 calls)
     g_psi        :      5.55s CPU      5.59s WALL (     278 calls)
     cdiaghg      :    131.45s CPU    131.56s WALL (     370 calls)

     Called by h_psi:
     h_psi:pot    :   3172.02s CPU   3218.43s WALL (     374 calls)
     h_psi:calbec :    305.58s CPU    305.86s WALL (     374 calls)
     vloc_psi     :   2539.94s CPU   2586.05s WALL (     374 calls)
     add_vuspsi   :    326.50s CPU    326.52s WALL (     374 calls)

     General routines
     calbec       :    435.58s CPU    436.04s WALL (     486 calls)
     fft          :      8.66s CPU      9.22s WALL (     336 calls)
     fftw         :   2584.12s CPU   2636.99s WALL (  220798 calls)

     Parallel routines
     fft_scatt_xy :    447.82s CPU    447.66s WALL (  221134 calls)
     fft_scatt_yz :    498.20s CPU    529.91s WALL (  221134 calls)

     PWSCF        :     1h32m CPU        1h33m WALL


   This run was terminated on:   9:40:33  28Oct2021            

=------------------------------------------------------------------------------=
   JOB DONE.
=------------------------------------------------------------------------------=
Note: The following floating-point exceptions are signalling: IEEE_DIVIDE_BY_ZERO
Note: The following floating-point exceptions are signalling: IEEE_DIVIDE_BY_ZERO
Note: The following floating-point exceptions are signalling: IEEE_DIVIDE_BY_ZERO
Note: The following floating-point exceptions are signalling: IEEE_DIVIDE_BY_ZERO IEEE_UNDERFLOW_FLAG IEEE_DENORMAL
