
     Program PWSCF v.6.2 (svn rev. 13949:13950) starts on 27Oct2021 at 22:55:39 

     This program is part of the open-source Quantum ESPRESSO suite
     for quantum simulation of materials; please cite
         "P. Giannozzi et al., J. Phys.:Condens. Matter 21 395502 (2009);
         "P. Giannozzi et al., J. Phys.:Condens. Matter 29 465901 (2017);
          URL http://www.quantum-espresso.org", 
     in publications or presentations arising from this work. More details at
     http://www.quantum-espresso.org/quote

     Parallel version (MPI), running on     4 processors

     MPI processes distributed on     1 nodes
     R & G space division:  proc/nbgrp/npool/nimage =       4
     Reading input from headeradd_supercell-006.in

     Current dimensions of program PWSCF are:
     Max number of different atomic species (ntypx) = 10
     Max number of k-points (npk) =  40000
     Max angular momentum in pseudopotentials (lmaxx) =  3
     Message from routine iosys:
     minimal I/O required, wf_collect reset to FALSE
               file Bi.pbe-dn-rrkjus_psl.1.0.0.UPF: wavefunction(s)  5D renormalized
               file O.pbe-rrkjus.UPF: wavefunction(s)  2S renormalized

     Subspace diagonalization in iterative solution of the eigenvalue problem:
     a serial algorithm will be used


     Parallelization info
     --------------------
     sticks:   dense  smooth     PW     G-vecs:    dense   smooth      PW
     Min        2104    2104    550               165101   165101   22036
     Max        2105    2105    551               165102   165102   22038
     Sum        8417    8417   2201               660405   660405   88147



     bravais-lattice index     =            0
     lattice parameter (alat)  =      19.6286  a.u.
     unit-cell volume          =    8346.2129 (a.u.)^3
     number of atoms/cell      =           96
     number of atomic types    =            3
     number of electrons       =       704.00
     number of Kohn-Sham states=          352
     kinetic-energy cutoff     =      70.0000  Ry
     charge density cutoff     =     280.0000  Ry
     convergence threshold     =      1.0E-09
     mixing beta               =       0.7000
     number of iterations used =            8  plain     mixing
     Exchange-correlation      =  SLA  PW   PBE  PBE ( 1  4  3  4 0 0)

     celldm(1)=  19.628585  celldm(2)=   0.000000  celldm(3)=   0.000000
     celldm(4)=   0.000000  celldm(5)=   0.000000  celldm(6)=   0.000000

     crystal axes: (cart. coord. in units of alat)
               a(1) = (   1.000000   0.000000   0.000000 )  
               a(2) = (  -0.006620   0.980010   0.000000 )  
               a(3) = (   0.496690   0.490005   1.126138 )  

     reciprocal axes: (cart. coord. in units 2 pi/alat)
               b(1) = (  1.000000  0.006755 -0.443995 )  
               b(2) = (  0.000000  1.020397 -0.443995 )  
               b(3) = (  0.000000 -0.000000  0.887990 )  


     PseudoPot. # 1 for Bi read from file:
     /home/uezono/pseudo/Bi.pbe-dn-rrkjus_psl.1.0.0.UPF
     MD5 check sum: f9abe7488ae443f53c935a63d0032572
     Pseudo is Ultrasoft + core correction, Zval = 15.0
     Generated using "atomic" code by A. Dal Corso  v.6.2.2
     Using radial grid of 1283 points,  6 beta functions with: 
                l(1) =   0
                l(2) =   0
                l(3) =   1
                l(4) =   1
                l(5) =   2
                l(6) =   2
     Q(r) pseudized with 0 coefficients 


     PseudoPot. # 2 for V  read from file:
     /home/uezono/pseudo/V.pbe-n-van.UPF
     MD5 check sum: ff5646be6093ca757d9525862f4bfff1
     Pseudo is Ultrasoft + core correction, Zval =  5.0
     Generated by new atomic code, or converted to UPF format
     Using radial grid of  853 points,  6 beta functions with: 
                l(1) =   0
                l(2) =   0
                l(3) =   1
                l(4) =   1
                l(5) =   2
                l(6) =   2
     Q(r) pseudized with  8 coefficients,  rinner =    1.000   1.000   1.000
                                                       1.000   1.000

     PseudoPot. # 3 for O  read from file:
     /home/uezono/pseudo/O.pbe-rrkjus.UPF
     MD5 check sum: fadcf19ee70a498d3030e2e79cf929a4
     Pseudo is Ultrasoft, Zval =  6.0
     Generated by new atomic code, or converted to UPF format
     Using radial grid of 1269 points,  4 beta functions with: 
                l(1) =   0
                l(2) =   0
                l(3) =   1
                l(4) =   1
     Q(r) pseudized with 0 coefficients 


     atomic species   valence    mass     pseudopotential
        Bi            15.00   208.98040     Bi( 1.00)
        V              5.00    50.94150     V ( 1.00)
        O              6.00    15.99940     O ( 1.00)

     No symmetry found



   Cartesian axes

     site n.     atom                  positions (alat units)
         1           Bi  tau(   1) = (   0.2475177   0.3675039   0.1503395  )
         2           Bi  tau(   2) = (   0.7475177   0.3675039   0.1503395  )
         3           Bi  tau(   3) = (   0.2442079   0.8575091   0.1503395  )
         4           Bi  tau(   4) = (   0.7442079   0.8575091   0.1503395  )
         5           Bi  tau(   5) = (   0.4958628   0.6125065   0.7134087  )
         6           Bi  tau(   6) = (   0.9958628   0.6125065   0.7134087  )
         7           Bi  tau(   7) = (   0.4925531   1.1025117   0.7134087  )
         8           Bi  tau(   8) = (   0.9925531   1.1025117   0.7134087  )
         9           Bi  tau(   9) = (   0.4975177   0.3675039   0.4127297  )
        10           Bi  tau(  10) = (   0.9975177   0.3675039   0.4127297  )
        11           Bi  tau(  11) = (   0.4942079   0.8575091   0.4127297  )
        12           Bi  tau(  12) = (   0.9942079   0.8575091   0.4127297  )
        13           Bi  tau(  13) = (   0.7458628   0.6125065   0.9757990  )
        14           Bi  tau(  14) = (   1.2458628   0.6125065   0.9757990  )
        15           Bi  tau(  15) = (   0.7425531   1.1025117   0.9757990  )
        16           Bi  tau(  16) = (   1.2425531   1.1025117   0.9757990  )
        17           V   tau(  17) = (   0.5001915   0.1225013   0.1463980  )
        18           V   tau(  18) = (   0.9991726   0.1225013   0.1463980  )
        19           V   tau(  19) = (   0.4958628   0.6125065   0.1463980  )
        20           V   tau(  20) = (   0.9958628   0.6125065   0.1463980  )
        21           V   tau(  21) = (   0.7475177   0.3675039   0.7094672  )
        22           V   tau(  22) = (   1.2475177   0.3675039   0.7094672  )
        23           V   tau(  23) = (   0.7442079   0.8575091   0.7094672  )
        24           V   tau(  24) = (   1.2442079   0.8575091   0.7094672  )
        25           V   tau(  25) = (   0.2458628   0.6125065   0.4166712  )
        26           V   tau(  26) = (   0.7458628   0.6125065   0.4166712  )
        27           V   tau(  27) = (   0.2425531   1.1025117   0.4166712  )
        28           V   tau(  28) = (   0.7425531   1.1025117   0.4166712  )
        29           V   tau(  29) = (   0.4942079   0.8575091   0.9797404  )
        30           V   tau(  30) = (   0.9942079   0.8575091   0.9797404  )
        31           V   tau(  31) = (   0.4908982   1.3475143   0.9797404  )
        32           V   tau(  32) = (   0.9908982   1.3475143   0.9797404  )
        33           O   tau(  33) = (   0.5715696   0.2487756   0.2344620  )
        34           O   tau(  34) = (   1.0715696   0.2487756   0.2344620  )
        35           O   tau(  35) = (   0.5682599   0.7387808   0.2344620  )
        36           O   tau(  36) = (   1.0682599   0.7387808   0.2344620  )
        37           O   tau(  37) = (   0.8199148   0.4937782   0.7975312  )
        38           O   tau(  38) = (   1.3199148   0.4937782   0.7975312  )
        39           O   tau(  39) = (   0.8166050   0.9837834   0.7975312  )
        40           O   tau(  40) = (   1.3166050   0.9837834   0.7975312  )
        41           O   tau(  41) = (   0.4234657   0.4862321   0.2344620  )
        42           O   tau(  42) = (   0.9234657   0.4862321   0.2344620  )
        43           O   tau(  43) = (   0.4201560   0.9762373   0.2344620  )
        44           O   tau(  44) = (   0.9201560   0.9762373   0.2344620  )
        45           O   tau(  45) = (   0.6718109   0.7312347   0.7975312  )
        46           O   tau(  46) = (   1.1718109   0.7312347   0.7975312  )
        47           O   tau(  47) = (   0.6685011   1.2212399   0.7975312  )
        48           O   tau(  48) = (   1.1685011   1.2212399   0.7975312  )
        49           O   tau(  49) = (   0.1734657   0.4862321   0.3286072  )
        50           O   tau(  50) = (   0.6734657   0.4862321   0.3286072  )
        51           O   tau(  51) = (   0.1701560   0.9762373   0.3286072  )
        52           O   tau(  52) = (   0.6701560   0.9762373   0.3286072  )
        53           O   tau(  53) = (   0.4218109   0.7312347   0.8916764  )
        54           O   tau(  54) = (   0.9218109   0.7312347   0.8916764  )
        55           O   tau(  55) = (   0.4185011   1.2212399   0.8916764  )
        56           O   tau(  56) = (   0.9185011   1.2212399   0.8916764  )
        57           O   tau(  57) = (   0.3215696   0.2487756   0.3286072  )
        58           O   tau(  58) = (   0.8215696   0.2487756   0.3286072  )
        59           O   tau(  59) = (   0.3182599   0.7387808   0.3286072  )
        60           O   tau(  60) = (   0.8182599   0.7387808   0.3286072  )
        61           O   tau(  61) = (   0.5699148   0.4937782   0.8916764  )
        62           O   tau(  62) = (   1.0699148   0.4937782   0.8916764  )
        63           O   tau(  63) = (   0.5666050   0.9837834   0.8916764  )
        64           O   tau(  64) = (   1.0666050   0.9837834   0.8916764  )
        65           O   tau(  65) = (   0.6257292   0.6766972   0.5059740  )
        66           O   tau(  66) = (   1.1257292   0.6766972   0.5059740  )
        67           O   tau(  67) = (   0.6224195   1.1667024   0.5059740  )
        68           O   tau(  68) = (   1.1224195   1.1667024   0.5059740  )
        69           O   tau(  69) = (   0.8740744   0.9216998   1.0690432  )
        70           O   tau(  70) = (   1.3740744   0.9216998   1.0690432  )
        71           O   tau(  71) = (   0.8707646   1.4117049   1.0690432  )
        72           O   tau(  72) = (   1.3707646   1.4117049   1.0690432  )
        73           O   tau(  73) = (   0.3659964   0.5483158   0.5059740  )
        74           O   tau(  74) = (   0.8659964   0.5483158   0.5059740  )
        75           O   tau(  75) = (   0.3626866   1.0383210   0.5059740  )
        76           O   tau(  76) = (   0.8626866   1.0383210   0.5059740  )
        77           O   tau(  77) = (   0.6143415   0.7933184   1.0690432  )
        78           O   tau(  78) = (   1.1143415   0.7933184   1.0690432  )
        79           O   tau(  79) = (   0.6110318   1.2833236   1.0690432  )
        80           O   tau(  80) = (   1.1110318   1.2833236   1.0690432  )
        81           O   tau(  81) = (   0.1193061   0.0583106   0.0570952  )
        82           O   tau(  82) = (   0.6193061   0.0583106   0.0570952  )
        83           O   tau(  83) = (   0.1159964   0.5483158   0.0570952  )
        84           O   tau(  84) = (   0.6159964   0.5483158   0.0570952  )
        85           O   tau(  85) = (   0.3676513   0.3033132   0.6201644  )
        86           O   tau(  86) = (   0.8676513   0.3033132   0.6201644  )
        87           O   tau(  87) = (   0.3643415   0.7933184   0.6201644  )
        88           O   tau(  88) = (   0.8643415   0.7933184   0.6201644  )
        89           O   tau(  89) = (   0.3790390   0.1866920   0.0570952  )
        90           O   tau(  90) = (   0.8790390   0.1866920   0.0570952  )
        91           O   tau(  91) = (   0.3757292   0.6766972   0.0570952  )
        92           O   tau(  92) = (   0.8757292   0.6766972   0.0570952  )
        93           O   tau(  93) = (   0.6273841   0.4316946   0.6201644  )
        94           O   tau(  94) = (   1.1273841   0.4316946   0.6201644  )
        95           O   tau(  95) = (   0.6240744   0.9216998   0.6201644  )
        96           O   tau(  96) = (   1.1240744   0.9216998   0.6201644  )

     number of k points=     4
                       cart. coord. in units 2pi/alat
        k(    1) = (   0.2500000   0.2567880   0.0000000), wk =   0.5000000
        k(    2) = (   0.2500000   0.2567880  -0.4439951), wk =   0.5000000
        k(    3) = (   0.2500000  -0.2534107   0.2219976), wk =   0.5000000
        k(    4) = (  -0.2500000   0.2534107   0.2219976), wk =   0.5000000

     Dense  grid:   660405 G-vectors     FFT dimensions: ( 108, 108, 144)

     Estimated max dynamical RAM per process >       2.39 GB

     Estimated total dynamical RAM >       9.55 GB

     Initial potential from superposition of free atoms

     starting charge  703.96725, renormalised to  704.00000
     Starting wfc are  544 randomized atomic wfcs

     total cpu time spent up to now is      109.9 secs

     Self-consistent Calculation

     iteration #  1     ecut=    70.00 Ry     beta= 0.70
     Davidson diagonalization with overlap
     ethr =  1.00E-02,  avg # of iterations =  1.0

     total cpu time spent up to now is      269.9 secs

     total energy              =   -4949.30895634 Ry
     Harris-Foulkes estimate   =   -4981.29945601 Ry
     estimated scf accuracy    <      40.94412903 Ry

     iteration #  2     ecut=    70.00 Ry     beta= 0.70
     Davidson diagonalization with overlap
     ethr =  5.82E-03,  avg # of iterations =  4.0

     total cpu time spent up to now is      563.6 secs

     total energy              =   -4901.62407710 Ry
     Harris-Foulkes estimate   =   -5036.17712420 Ry
     estimated scf accuracy    <     570.89591763 Ry

     iteration #  3     ecut=    70.00 Ry     beta= 0.70
     Davidson diagonalization with overlap
     ethr =  5.82E-03,  avg # of iterations =  6.2

     total cpu time spent up to now is      869.6 secs

     total energy              =   -4970.01354506 Ry
     Harris-Foulkes estimate   =   -4977.38942918 Ry
     estimated scf accuracy    <      23.89538176 Ry

     iteration #  4     ecut=    70.00 Ry     beta= 0.70
     Davidson diagonalization with overlap
     ethr =  3.39E-03,  avg # of iterations =  2.0

     total cpu time spent up to now is     1067.8 secs

     total energy              =   -4972.11400894 Ry
     Harris-Foulkes estimate   =   -4972.74655417 Ry
     estimated scf accuracy    <       4.39176291 Ry

     iteration #  5     ecut=    70.00 Ry     beta= 0.70
     Davidson diagonalization with overlap
     ethr =  6.24E-04,  avg # of iterations =  2.0

     total cpu time spent up to now is     1232.7 secs

     total energy              =   -4971.78712270 Ry
     Harris-Foulkes estimate   =   -4972.31614072 Ry
     estimated scf accuracy    <       2.09928023 Ry

     iteration #  6     ecut=    70.00 Ry     beta= 0.70
     Davidson diagonalization with overlap
     ethr =  2.98E-04,  avg # of iterations =  3.0

     total cpu time spent up to now is     1438.7 secs

     total energy              =   -4972.08044656 Ry
     Harris-Foulkes estimate   =   -4972.11915569 Ry
     estimated scf accuracy    <       0.06952937 Ry

     iteration #  7     ecut=    70.00 Ry     beta= 0.70
     Davidson diagonalization with overlap
     ethr =  9.88E-06,  avg # of iterations =  4.0

     total cpu time spent up to now is     1700.3 secs

     total energy              =   -4972.08860820 Ry
     Harris-Foulkes estimate   =   -4972.12908429 Ry
     estimated scf accuracy    <       0.12724588 Ry

     iteration #  8     ecut=    70.00 Ry     beta= 0.70
     Davidson diagonalization with overlap
     ethr =  9.88E-06,  avg # of iterations =  3.0

     total cpu time spent up to now is     1937.3 secs

     total energy              =   -4972.09855156 Ry
     Harris-Foulkes estimate   =   -4972.11712124 Ry
     estimated scf accuracy    <       0.06288069 Ry

     iteration #  9     ecut=    70.00 Ry     beta= 0.70
     Davidson diagonalization with overlap
     ethr =  8.93E-06,  avg # of iterations =  3.0

     total cpu time spent up to now is     2168.2 secs

     total energy              =   -4972.10861887 Ry
     Harris-Foulkes estimate   =   -4972.11377234 Ry
     estimated scf accuracy    <       0.02949937 Ry

     iteration # 10     ecut=    70.00 Ry     beta= 0.70
     Davidson diagonalization with overlap
     ethr =  4.19E-06,  avg # of iterations =  2.0

     total cpu time spent up to now is     2336.5 secs

     total energy              =   -4972.10756926 Ry
     Harris-Foulkes estimate   =   -4972.11035709 Ry
     estimated scf accuracy    <       0.01024112 Ry

     iteration # 11     ecut=    70.00 Ry     beta= 0.70
     Davidson diagonalization with overlap
     ethr =  1.45E-06,  avg # of iterations =  3.0

     total cpu time spent up to now is     2544.7 secs

     total energy              =   -4972.10908652 Ry
     Harris-Foulkes estimate   =   -4972.10923045 Ry
     estimated scf accuracy    <       0.00045985 Ry

     iteration # 12     ecut=    70.00 Ry     beta= 0.70
     Davidson diagonalization with overlap
     ethr =  6.53E-08,  avg # of iterations =  3.0

     total cpu time spent up to now is     2780.3 secs

     total energy              =   -4972.10915621 Ry
     Harris-Foulkes estimate   =   -4972.10923020 Ry
     estimated scf accuracy    <       0.00029108 Ry

     iteration # 13     ecut=    70.00 Ry     beta= 0.70
     Davidson diagonalization with overlap
     ethr =  4.13E-08,  avg # of iterations =  3.0

     total cpu time spent up to now is     2989.6 secs

     total energy              =   -4972.10917595 Ry
     Harris-Foulkes estimate   =   -4972.10919830 Ry
     estimated scf accuracy    <       0.00008316 Ry

     iteration # 14     ecut=    70.00 Ry     beta= 0.70
     Davidson diagonalization with overlap
     ethr =  1.18E-08,  avg # of iterations =  3.0

     total cpu time spent up to now is     3201.8 secs

     total energy              =   -4972.10918602 Ry
     Harris-Foulkes estimate   =   -4972.10918833 Ry
     estimated scf accuracy    <       0.00000597 Ry

     iteration # 15     ecut=    70.00 Ry     beta= 0.70
     Davidson diagonalization with overlap
     ethr =  8.47E-10,  avg # of iterations =  4.0

     total cpu time spent up to now is     3463.4 secs

     total energy              =   -4972.10918619 Ry
     Harris-Foulkes estimate   =   -4972.10918931 Ry
     estimated scf accuracy    <       0.00001118 Ry

     iteration # 16     ecut=    70.00 Ry     beta= 0.70
     Davidson diagonalization with overlap
     ethr =  8.47E-10,  avg # of iterations =  3.0

     total cpu time spent up to now is     3696.2 secs

     total energy              =   -4972.10918762 Ry
     Harris-Foulkes estimate   =   -4972.10918777 Ry
     estimated scf accuracy    <       0.00000035 Ry

     iteration # 17     ecut=    70.00 Ry     beta= 0.70
     Davidson diagonalization with overlap
     ethr =  4.97E-11,  avg # of iterations =  3.5

     total cpu time spent up to now is     3950.5 secs

     total energy              =   -4972.10918763 Ry
     Harris-Foulkes estimate   =   -4972.10918785 Ry
     estimated scf accuracy    <       0.00000089 Ry

     iteration # 18     ecut=    70.00 Ry     beta= 0.70
     Davidson diagonalization with overlap
     ethr =  4.97E-11,  avg # of iterations =  3.0

     total cpu time spent up to now is     4191.7 secs

     total energy              =   -4972.10918773 Ry
     Harris-Foulkes estimate   =   -4972.10918775 Ry
     estimated scf accuracy    <       0.00000007 Ry

     iteration # 19     ecut=    70.00 Ry     beta= 0.70
     Davidson diagonalization with overlap
     ethr =  9.61E-12,  avg # of iterations =  3.0

     total cpu time spent up to now is     4425.0 secs

     total energy              =   -4972.10918774 Ry
     Harris-Foulkes estimate   =   -4972.10918774 Ry
     estimated scf accuracy    <       0.00000003 Ry

     iteration # 20     ecut=    70.00 Ry     beta= 0.70
     Davidson diagonalization with overlap
     ethr =  3.81E-12,  avg # of iterations =  3.0

     total cpu time spent up to now is     4654.2 secs

     total energy              =   -4972.10918774 Ry
     Harris-Foulkes estimate   =   -4972.10918774 Ry
     estimated scf accuracy    <       0.00000001 Ry

     iteration # 21     ecut=    70.00 Ry     beta= 0.70
     Davidson diagonalization with overlap
     ethr =  1.78E-12,  avg # of iterations =  3.0

     total cpu time spent up to now is     4879.1 secs

     total energy              =   -4972.10918774 Ry
     Harris-Foulkes estimate   =   -4972.10918774 Ry
     estimated scf accuracy    <          2.3E-09 Ry

     iteration # 22     ecut=    70.00 Ry     beta= 0.70
     Davidson diagonalization with overlap
     ethr =  3.21E-13,  avg # of iterations =  3.0

     total cpu time spent up to now is     5100.7 secs

     End of self-consistent calculation

          k = 0.2500 0.2568 0.0000 ( 82568 PWs)   bands (ev):

   -14.4892 -14.4875 -14.4869 -14.4857 -14.4844 -14.4829 -14.4824 -14.4810
   -14.4774 -14.4687 -14.4683 -14.4682 -14.4636 -14.4631 -14.4580 -14.4578
   -14.4517 -14.4516 -14.4484 -14.4367 -14.4334 -14.4309 -14.4307 -14.4254
   -14.4235 -14.4130 -14.4126 -14.4069 -14.4059 -14.4055 -14.4051 -14.4032
   -14.4025 -14.3995 -14.3987 -14.3978 -14.3975 -14.3969 -14.3953 -14.3949
   -14.3944 -14.3931 -14.3927 -14.3924 -14.3917 -14.3910 -14.3893 -14.3877
   -14.3868 -14.3850 -14.3837 -14.3830 -14.3809 -14.3807 -14.3796 -14.3790
   -14.3788 -14.3739 -14.3734 -14.3702 -14.3680 -14.3676 -14.3647 -14.3615
   -14.3605 -14.3596 -14.3588 -14.3580 -14.3568 -14.3538 -14.3520 -14.3513
   -14.3497 -14.3481 -14.3473 -14.3454 -14.3447 -14.3413 -14.3408 -14.3362
   -10.4960 -10.2964 -10.1661 -10.1660 -10.1203 -10.1202  -9.9301  -9.8056
    -9.6778  -9.6053  -9.6045  -9.5999  -9.5992  -9.5452  -9.4697  -9.3939
    -9.3598  -9.3231  -9.3208  -9.3132  -9.3028  -9.2807  -9.2787  -9.2524
    -9.2428  -9.1714  -9.1487  -9.1143  -9.1139  -9.0844  -9.0835  -9.0664
    -9.0635  -9.0421  -9.0400  -9.0399  -8.9758  -8.9732  -8.9540  -8.9449
    -8.9345  -8.9342  -8.9243  -8.8995  -8.8918  -8.8913  -8.8887  -8.8632
    -8.8295  -8.8247  -8.8239  -8.8212  -8.8185  -8.8044  -8.7844  -8.7831
    -8.7759  -8.7525  -8.7141  -8.7043  -8.7028  -8.6861  -8.6846  -8.6581
    -2.2088  -2.0741  -2.0740  -1.9658  -1.9017  -1.9016  -1.8935  -1.7949
    -1.5981  -1.5523  -1.5522  -1.5040  -1.4726  -1.3586  -1.3585  -1.3052
     2.4197   2.4643   2.4982   2.4993   2.5541   2.5548   2.6749   2.7345
     2.7360   2.7411   2.7504   2.7521   2.7647   2.7708   2.7755   2.8352
     2.8360   2.9408   2.9520   2.9758   2.9765   3.0042   3.1128   3.1807
     3.1808   3.2215   3.2512   3.2527   3.2810   3.3614   3.3860   3.3868
     3.4145   3.4221   3.4224   3.5346   3.5350   3.6267   3.6426   3.7113
     3.7118   3.7686   3.7764   3.7910   3.8967   3.8979   3.8983   3.9699
     3.9951   4.0185   4.0275   4.0417   4.0429   4.0437   4.0446   4.1461
     4.1863   4.2090   4.2093   4.2351   4.2397   4.2406   4.2455   4.2677
     4.2847   4.2857   4.3003   4.3514   4.3650   4.3694   4.3701   4.3760
     4.3828   4.3834   4.4053   4.4085   4.4419   4.4867   4.4930   4.4942
     4.5359   4.5379   4.6138   4.6345   4.6355   4.6443   4.6448   4.6727
     4.6732   4.6801   4.6961   4.7007   4.7133   4.7222   4.7671   4.7701
     4.7708   4.8414   4.8614   4.8616   4.9195   4.9342   5.0017   5.0073
     5.0087   5.0563   5.0564   5.0924   5.0942   5.1131   5.1226   5.1240
     5.1458   5.1462   5.2148   5.2737   5.2861   5.2874   5.2885   5.3620
     5.3687   5.3691   5.3938   5.3979   5.4240   5.5197   5.5209   5.5458
     5.6497   5.7455   5.7462   5.7520   5.8378   5.8530   5.8550   5.8703
     5.8909   5.9899   5.9923   5.9938   6.0036   6.0650   6.0652   6.1333
     6.1358   6.1558   6.2481   6.2708   6.2716   6.2731   6.2749   6.2766
     6.2850   6.2860   6.2966   6.4116   6.4129   6.4135   6.4196   6.4238
     6.4636   6.4651   6.4733   6.4759   6.4927   6.5825   6.5902   6.5906
     6.6962   6.6979   6.7261   6.7906   6.7920   6.7962   6.8125   6.8675
     6.8742   6.8787   6.8798   6.9327   6.9422   6.9468   6.9481   6.9905
     6.9910   7.0642   7.1488   7.2887   7.2895   7.3694   7.3696   7.4775

          k = 0.2500 0.2568-0.4440 ( 82488 PWs)   bands (ev):

   -14.4891 -14.4879 -14.4871 -14.4850 -14.4841 -14.4837 -14.4831 -14.4785
   -14.4748 -14.4733 -14.4729 -14.4610 -14.4576 -14.4570 -14.4568 -14.4559
   -14.4538 -14.4524 -14.4520 -14.4498 -14.4350 -14.4317 -14.4316 -14.4233
   -14.4205 -14.4168 -14.4160 -14.4137 -14.4082 -14.4061 -14.4047 -14.4037
   -14.4007 -14.3997 -14.3992 -14.3981 -14.3972 -14.3966 -14.3962 -14.3955
   -14.3939 -14.3933 -14.3922 -14.3920 -14.3893 -14.3885 -14.3878 -14.3853
   -14.3842 -14.3839 -14.3838 -14.3820 -14.3794 -14.3759 -14.3752 -14.3733
   -14.3723 -14.3716 -14.3711 -14.3705 -14.3698 -14.3691 -14.3675 -14.3670
   -14.3633 -14.3615 -14.3609 -14.3560 -14.3554 -14.3545 -14.3533 -14.3525
   -14.3505 -14.3487 -14.3476 -14.3470 -14.3468 -14.3411 -14.3407 -14.3357
   -10.4123 -10.4122 -10.2242 -10.1947 -10.0986 -10.0190  -9.8741  -9.8741
    -9.6769  -9.6005  -9.5596  -9.5151  -9.5087  -9.5083  -9.4913  -9.4907
    -9.4437  -9.4382  -9.3934  -9.3924  -9.2312  -9.2248  -9.2240  -9.1950
    -9.1943  -9.1703  -9.1695  -9.1522  -9.1418  -9.1384  -9.1234  -9.0860
    -9.0671  -9.0655  -9.0502  -8.9824  -8.9742  -8.9639  -8.9107  -8.9089
    -8.9020  -8.8987  -8.8950  -8.8889  -8.8873  -8.8804  -8.8756  -8.8750
    -8.8534  -8.8402  -8.8312  -8.8295  -8.8175  -8.8139  -8.7998  -8.7867
    -8.7838  -8.7644  -8.7188  -8.6973  -8.6921  -8.6850  -8.6839  -8.6802
    -2.1226  -2.0992  -2.0991  -2.0228  -1.9817  -1.8513  -1.8511  -1.7732
    -1.6575  -1.5441  -1.5439  -1.4958  -1.3900  -1.3771  -1.3770  -1.3304
     2.4964   2.4998   2.5657   2.5690   2.5695   2.5716   2.6230   2.6614
     2.6619   2.7253   2.7263   2.7517   2.7517   2.7766   2.8677   2.8697
     2.8705   2.8739   2.8785   2.8791   2.9147   3.0341   3.0925   3.1337
     3.1396   3.1406   3.2565   3.2600   3.2722   3.2853   3.2979   3.2986
     3.3720   3.4348   3.4611   3.4621   3.6029   3.6030   3.6715   3.7705
     3.7985   3.8284   3.9025   3.9036   3.9860   3.9862   4.0147   4.0360
     4.0470   4.0662   4.0839   4.0938   4.1174   4.1185   4.1497   4.1698
     4.1711   4.2035   4.2208   4.2227   4.2245   4.2368   4.2643   4.2841
     4.2857   4.2969   4.2975   4.2993   4.3194   4.3392   4.3397   4.3427
     4.4064   4.4312   4.4316   4.4337   4.4705   4.4737   4.4757   4.4785
     4.4812   4.4829   4.5267   4.5326   4.5510   4.5525   4.6017   4.6242
     4.6267   4.6412   4.6862   4.6867   4.7302   4.7922   4.8216   4.8232
     4.8315   4.8330   4.8644   4.8771   4.8797   4.8855   4.8870   4.8973
     4.8987   4.9910   5.0364   5.0370   5.0928   5.1058   5.1167   5.1532
     5.1652   5.1655   5.2046   5.2260   5.2454   5.2467   5.2548   5.2750
     5.3076   5.3365   5.3372   5.4453   5.4710   5.5703   5.5712   5.6568
     5.7133   5.7954   5.7998   5.8008   5.8118   5.8855   5.8880   5.9156
     5.9798   6.0126   6.0307   6.0311   6.0557   6.0648   6.0679   6.0693
     6.1154   6.1605   6.1693   6.1712   6.1880   6.2019   6.2028   6.2752
     6.3436   6.3529   6.3579   6.4018   6.4025   6.4097   6.4910   6.4916
     6.5015   6.5131   6.5229   6.5275   6.5771   6.5878   6.6170   6.6356
     6.6386   6.6578   6.6860   6.6865   6.7872   6.7886   6.8019   6.8023
     6.8251   6.8800   6.8817   6.9346   6.9358   6.9556   6.9558   6.9719
     7.0241   7.0311   7.0890   7.1805   7.3436   7.3446   7.4399   7.5545

          k = 0.2500-0.2534 0.2220 ( 82555 PWs)   bands (ev):

   -14.4895 -14.4875 -14.4871 -14.4856 -14.4852 -14.4839 -14.4826 -14.4779
   -14.4747 -14.4731 -14.4708 -14.4638 -14.4609 -14.4601 -14.4587 -14.4571
   -14.4545 -14.4513 -14.4477 -14.4428 -14.4355 -14.4311 -14.4287 -14.4260
   -14.4224 -14.4154 -14.4125 -14.4095 -14.4079 -14.4075 -14.4055 -14.4046
   -14.4011 -14.3995 -14.3982 -14.3973 -14.3969 -14.3960 -14.3956 -14.3946
   -14.3941 -14.3931 -14.3925 -14.3918 -14.3899 -14.3894 -14.3888 -14.3882
   -14.3860 -14.3845 -14.3841 -14.3829 -14.3821 -14.3790 -14.3774 -14.3742
   -14.3735 -14.3732 -14.3711 -14.3709 -14.3705 -14.3684 -14.3657 -14.3645
   -14.3617 -14.3612 -14.3574 -14.3571 -14.3564 -14.3553 -14.3525 -14.3519
   -14.3498 -14.3488 -14.3475 -14.3469 -14.3455 -14.3406 -14.3400 -14.3366
   -10.4780 -10.3428 -10.2011 -10.1568 -10.1063 -10.0293  -9.9443  -9.8710
    -9.6904  -9.6133  -9.6075  -9.5890  -9.5736  -9.4719  -9.4156  -9.4084
    -9.4066  -9.3905  -9.3829  -9.3603  -9.2473  -9.2334  -9.2222  -9.2010
    -9.1958  -9.1783  -9.1657  -9.1338  -9.1218  -9.1187  -9.1116  -9.1090
    -9.0633  -9.0605  -9.0568  -9.0248  -9.0206  -9.0097  -8.9360  -8.9352
    -8.9313  -8.9147  -8.9137  -8.8907  -8.8857  -8.8854  -8.8488  -8.8480
    -8.8432  -8.8395  -8.8073  -8.7981  -8.7944  -8.7854  -8.7811  -8.7730
    -8.7673  -8.7628  -8.7575  -8.7313  -8.7092  -8.7039  -8.6754  -8.6488
    -2.1762  -2.1134  -2.0313  -2.0122  -1.9598  -1.8804  -1.8250  -1.8185
    -1.6238  -1.5605  -1.5196  -1.5110  -1.4289  -1.3968  -1.3350  -1.3235
     2.4307   2.4821   2.5239   2.5558   2.5780   2.5799   2.5822   2.6382
     2.6909   2.7004   2.7255   2.7408   2.7830   2.7907   2.8047   2.8413
     2.8422   2.8601   3.0157   3.0334   3.0565   3.0831   3.1172   3.1267
     3.1437   3.1914   3.1947   3.2120   3.2338   3.2547   3.3122   3.3720
     3.5134   3.5254   3.5423   3.5493   3.5757   3.6016   3.6515   3.6564
     3.6876   3.6974   3.8606   3.8738   3.9105   3.9328   3.9456   3.9523
     3.9848   3.9871   4.0113   4.0479   4.0979   4.1156   4.1290   4.1409
     4.1473   4.1949   4.2024   4.2047   4.2120   4.2317   4.2334   4.2434
     4.2502   4.2521   4.2939   4.3073   4.3400   4.3547   4.3578   4.3818
     4.4237   4.4262   4.4331   4.4443   4.4539   4.4691   4.4970   4.5303
     4.5388   4.5409   4.5416   4.5657   4.5739   4.6681   4.6688   4.6826
     4.6895   4.7126   4.7342   4.7375   4.7489   4.7535   4.7571   4.7653
     4.7922   4.7968   4.8718   4.8746   4.8791   4.9043   4.9317   4.9645
     4.9778   4.9993   5.0323   5.0506   5.0931   5.0951   5.1241   5.1786
     5.1854   5.2025   5.2301   5.2571   5.2660   5.2683   5.2964   5.3004
     5.3741   5.3757   5.4496   5.4660   5.5053   5.5397   5.5429   5.6074
     5.6762   5.6874   5.6941   5.7133   5.7218   5.7493   5.8080   5.8557
     5.8889   5.9412   5.9619   5.9765   5.9880   6.0380   6.0482   6.1433
     6.1524   6.1993   6.2278   6.2532   6.2731   6.2752   6.2805   6.3102
     6.3360   6.3536   6.3576   6.3781   6.4233   6.4316   6.4342   6.4778
     6.4799   6.5014   6.5549   6.5684   6.6146   6.6216   6.6620   6.6650
     6.6895   6.6919   6.6949   6.7223   6.7257   6.7321   6.7483   6.7908
     6.8300   6.8703   6.8882   6.9224   6.9374   6.9423   6.9569   6.9792
     6.9833   7.0788   7.1200   7.2383   7.2882   7.3060   7.4633   7.4684

          k =-0.2500 0.2534 0.2220 ( 82555 PWs)   bands (ev):

   -14.4895 -14.4875 -14.4872 -14.4855 -14.4852 -14.4839 -14.4827 -14.4778
   -14.4747 -14.4730 -14.4708 -14.4638 -14.4609 -14.4602 -14.4587 -14.4571
   -14.4544 -14.4512 -14.4477 -14.4428 -14.4354 -14.4311 -14.4287 -14.4260
   -14.4224 -14.4154 -14.4125 -14.4095 -14.4080 -14.4074 -14.4055 -14.4046
   -14.4010 -14.3995 -14.3981 -14.3973 -14.3970 -14.3962 -14.3955 -14.3948
   -14.3938 -14.3932 -14.3924 -14.3918 -14.3902 -14.3894 -14.3888 -14.3879
   -14.3863 -14.3844 -14.3840 -14.3828 -14.3822 -14.3790 -14.3774 -14.3741
   -14.3736 -14.3732 -14.3713 -14.3708 -14.3704 -14.3685 -14.3657 -14.3645
   -14.3618 -14.3611 -14.3574 -14.3570 -14.3562 -14.3556 -14.3526 -14.3517
   -14.3498 -14.3486 -14.3474 -14.3471 -14.3456 -14.3407 -14.3399 -14.3366
   -10.4780 -10.3428 -10.2011 -10.1569 -10.1063 -10.0291  -9.9443  -9.8711
    -9.6911  -9.6133  -9.6082  -9.5885  -9.5731  -9.4717  -9.4150  -9.4086
    -9.4057  -9.3897  -9.3830  -9.3606  -9.2474  -9.2342  -9.2236  -9.2028
    -9.1961  -9.1785  -9.1651  -9.1335  -9.1218  -9.1183  -9.1117  -9.1099
    -9.0634  -9.0574  -9.0544  -9.0236  -9.0222  -9.0104  -8.9391  -8.9363
    -8.9305  -8.9154  -8.9141  -8.8890  -8.8855  -8.8849  -8.8488  -8.8480
    -8.8422  -8.8389  -8.8090  -8.7969  -8.7937  -8.7870  -8.7817  -8.7729
    -8.7673  -8.7624  -8.7560  -8.7327  -8.7094  -8.7035  -8.6756  -8.6486
    -2.1762  -2.1133  -2.0313  -2.0122  -1.9599  -1.8804  -1.8249  -1.8186
    -1.6239  -1.5605  -1.5196  -1.5110  -1.4289  -1.3967  -1.3351  -1.3235
     2.4310   2.4812   2.5232   2.5564   2.5781   2.5798   2.5832   2.6380
     2.6911   2.7009   2.7262   2.7412   2.7824   2.7900   2.8055   2.8412
     2.8423   2.8595   3.0157   3.0336   3.0565   3.0831   3.1171   3.1268
     3.1416   3.1917   3.1948   3.2115   3.2340   3.2540   3.3123   3.3730
     3.5123   3.5267   3.5396   3.5504   3.5764   3.6005   3.6508   3.6570
     3.6882   3.6970   3.8618   3.8728   3.9135   3.9345   3.9447   3.9531
     3.9841   3.9865   4.0119   4.0481   4.0984   4.1142   4.1268   4.1408
     4.1495   4.1962   4.2015   4.2061   4.2123   4.2311   4.2340   4.2406
     4.2483   4.2534   4.2942   4.3079   4.3425   4.3539   4.3572   4.3841
     4.4244   4.4275   4.4329   4.4447   4.4528   4.4682   4.4965   4.5292
     4.5386   4.5406   4.5414   4.5641   4.5719   4.6682   4.6695   4.6826
     4.6883   4.7128   4.7348   4.7390   4.7506   4.7527   4.7571   4.7627
     4.7911   4.7992   4.8712   4.8749   4.8779   4.9046   4.9335   4.9663
     4.9761   4.9994   5.0315   5.0496   5.0934   5.0957   5.1235   5.1770
     5.1852   5.2029   5.2301   5.2564   5.2672   5.2692   5.2961   5.3011
     5.3753   5.3770   5.4496   5.4662   5.5029   5.5408   5.5460   5.6070
     5.6755   5.6881   5.6917   5.7129   5.7223   5.7490   5.8087   5.8526
     5.8900   5.9403   5.9603   5.9757   5.9892   6.0376   6.0482   6.1432
     6.1507   6.2014   6.2276   6.2532   6.2719   6.2747   6.2793   6.3127
     6.3346   6.3532   6.3594   6.3781   6.4246   6.4325   6.4358   6.4781
     6.4807   6.5015   6.5548   6.5673   6.6154   6.6218   6.6620   6.6653
     6.6906   6.6917   6.6945   6.7213   6.7272   6.7320   6.7480   6.7898
     6.8311   6.8698   6.8870   6.9215   6.9379   6.9425   6.9564   6.9790
     6.9818   7.0802   7.1205   7.2382   7.2880   7.3055   7.4635   7.4682

     highest occupied level (ev):     7.5545

!    total energy              =   -4972.10918774 Ry
     Harris-Foulkes estimate   =   -4972.10918774 Ry
     estimated scf accuracy    <          8.3E-10 Ry

     The total energy is the sum of the following terms:

     one-electron contribution =   -1193.11047838 Ry
     hartree contribution      =    1074.13641276 Ry
     xc contribution           =   -1297.69977477 Ry
     ewald contribution        =   -3555.43534736 Ry

     convergence has been achieved in  22 iterations

     Forces acting on atoms (cartesian axes, Ry/au):

     atom    1 type  1   force =     0.00080721   -0.00117228   -0.01425381
     atom    2 type  1   force =     0.00076676    0.00077451   -0.01400550
     atom    3 type  1   force =     0.00076948    0.00076791   -0.01371371
     atom    4 type  1   force =     0.00081195   -0.00118445   -0.01346744
     atom    5 type  1   force =     0.00005421    0.00001828   -0.01385916
     atom    6 type  1   force =    -0.00006423    0.00004237   -0.01385950
     atom    7 type  1   force =    -0.00004981   -0.00005007   -0.01385928
     atom    8 type  1   force =     0.00003576    0.00001101   -0.01385905
     atom    9 type  1   force =    -0.00057995    0.00033415    0.01438757
     atom   10 type  1   force =     0.00022593    0.00000151    0.01387156
     atom   11 type  1   force =    -0.00058351    0.00033653    0.01332736
     atom   12 type  1   force =     0.00022683   -0.00000097    0.01384722
     atom   13 type  1   force =     0.00053917    0.00020465    0.01475387
     atom   14 type  1   force =     0.00053963    0.00020418    0.01296182
     atom   15 type  1   force =     0.00002564   -0.00002157    0.01390459
     atom   16 type  1   force =     0.00002536   -0.00002139    0.01381573
     atom   17 type  2   force =    -0.01860842    0.00133276    0.00471334
     atom   18 type  2   force =     0.00054491   -0.00003520    0.00453708
     atom   19 type  2   force =    -0.00012272    0.00005690    0.00453678
     atom   20 type  2   force =     0.00035978    0.00001363    0.00453692
     atom   21 type  2   force =     0.00005628    0.00004704    0.00462738
     atom   22 type  2   force =    -0.00006097   -0.00005370    0.00448716
     atom   23 type  2   force =    -0.00006156   -0.00005476    0.00459386
     atom   24 type  2   force =     0.00005734    0.00004687    0.00445367
     atom   25 type  2   force =    -0.00010025   -0.00001590   -0.00468821
     atom   26 type  2   force =    -0.00010069   -0.00001659   -0.00438749
     atom   27 type  2   force =     0.00048530    0.00010670   -0.00499615
     atom   28 type  2   force =     0.00048659    0.00011432   -0.00407579
     atom   29 type  2   force =     0.00022798    0.00001923   -0.00445217
     atom   30 type  2   force =    -0.00053215   -0.00004142   -0.00446194
     atom   31 type  2   force =     0.00022946    0.00001818   -0.00462591
     atom   32 type  2   force =    -0.00053129   -0.00004255   -0.00461847
     atom   33 type  3   force =     0.00205602    0.00031958    0.00120139
     atom   34 type  3   force =    -0.00032992   -0.00139779    0.00015613
     atom   35 type  3   force =    -0.00000301   -0.00133338    0.00009781
     atom   36 type  3   force =    -0.00031838   -0.00140583    0.00019975
     atom   37 type  3   force =    -0.00013827   -0.00137929    0.00003734
     atom   38 type  3   force =    -0.00019660   -0.00117725    0.00029157
     atom   39 type  3   force =    -0.00015960   -0.00125947    0.00016888
     atom   40 type  3   force =    -0.00016224   -0.00126640    0.00018931
     atom   41 type  3   force =    -0.00017355    0.00164175    0.00028507
     atom   42 type  3   force =    -0.00048620    0.00156969    0.00018405
     atom   43 type  3   force =     0.00186262    0.00322783   -0.00078644
     atom   44 type  3   force =    -0.00049965    0.00157712    0.00022663
     atom   45 type  3   force =    -0.00036440    0.00179879    0.00009104
     atom   46 type  3   force =    -0.00030643    0.00159653    0.00034572
     atom   47 type  3   force =    -0.00033012    0.00170965    0.00019346
     atom   48 type  3   force =    -0.00032817    0.00171571    0.00021420
     atom   49 type  3   force =     0.00011766    0.00146670    0.00009078
     atom   50 type  3   force =     0.00014800    0.00116884   -0.00023879
     atom   51 type  3   force =    -0.00002841    0.00116889   -0.00013855
     atom   52 type  3   force =     0.00007777    0.00148727   -0.00066034
     atom   53 type  3   force =    -0.00002181    0.00110573   -0.00014816
     atom   54 type  3   force =     0.00025445    0.00137472   -0.00026408
     atom   55 type  3   force =     0.00015127    0.00126297   -0.00017576
     atom   56 type  3   force =     0.00017857    0.00126579   -0.00017246
     atom   57 type  3   force =     0.00025017   -0.00149083    0.00026664
     atom   58 type  3   force =     0.00014056   -0.00180770   -0.00024339
     atom   59 type  3   force =     0.00031610   -0.00180712   -0.00014369
     atom   60 type  3   force =     0.00028667   -0.00150724   -0.00047458
     atom   61 type  3   force =     0.00014594   -0.00187026   -0.00023373
     atom   62 type  3   force =     0.00042206   -0.00160137   -0.00011780
     atom   63 type  3   force =     0.00031916   -0.00171250   -0.00020623
     atom   64 type  3   force =     0.00034639   -0.00171060   -0.00020944
     atom   65 type  3   force =    -0.00856488    0.00522191    0.00542550
     atom   66 type  3   force =    -0.00879026    0.00541801    0.00549169
     atom   67 type  3   force =    -0.00871661    0.00537141    0.00530713
     atom   68 type  3   force =    -0.00894098    0.00546292    0.00556529
     atom   69 type  3   force =    -0.00860305    0.00548627    0.00524491
     atom   70 type  3   force =    -0.00884324    0.00539479    0.00555619
     atom   71 type  3   force =    -0.00841140    0.00512439    0.00517601
     atom   72 type  3   force =    -0.00895004    0.00546820    0.00558043
     atom   73 type  3   force =     0.00859926   -0.00525416    0.00551074
     atom   74 type  3   force =     0.00837529   -0.00505898    0.00544428
     atom   75 type  3   force =     0.00844647   -0.00510403    0.00562836
     atom   76 type  3   force =     0.00822317   -0.00501396    0.00537017
     atom   77 type  3   force =     0.00821552   -0.00500881    0.00535459
     atom   78 type  3   force =     0.00875425   -0.00535598    0.00576140
     atom   79 type  3   force =     0.00832012   -0.00508180    0.00537620
     atom   80 type  3   force =     0.00856161   -0.00498924    0.00569013
     atom   81 type  3   force =     0.00843121   -0.00530227   -0.00537098
     atom   82 type  3   force =     0.01461813   -0.00782161   -0.00924593
     atom   83 type  3   force =     0.00848751   -0.00516600   -0.00545245
     atom   84 type  3   force =     0.00884266   -0.00544777   -0.00549092
     atom   85 type  3   force =     0.00879535   -0.00533529   -0.00548270
     atom   86 type  3   force =     0.00874378   -0.00540260   -0.00548386
     atom   87 type  3   force =     0.00868258   -0.00538168   -0.00538594
     atom   88 type  3   force =     0.00877061   -0.00539214   -0.00548990
     atom   89 type  3   force =    -0.00275180    0.00278796   -0.00188957
     atom   90 type  3   force =    -0.00873414    0.00517324   -0.00556459
     atom   91 type  3   force =    -0.00832159    0.00502856   -0.00544472
     atom   92 type  3   force =    -0.00867715    0.00531112   -0.00548274
     atom   93 type  3   force =    -0.00848216    0.00509508   -0.00554858
     atom   94 type  3   force =    -0.00839489    0.00508500   -0.00544502
     atom   95 type  3   force =    -0.00836990    0.00514237   -0.00545228
     atom   96 type  3   force =    -0.00842210    0.00507470   -0.00545154

     Total force =     0.090382     Total SCF correction =     0.000098


     Computing stress (Cartesian axis) and pressure

          total   stress  (Ry/bohr**3)                   (kbar)     P=   40.59
   0.00029107   0.00000140  -0.00000196         42.82      0.21     -0.29
   0.00000140   0.00026680   0.00000198          0.21     39.25      0.29
  -0.00000196   0.00000198   0.00026981         -0.29      0.29     39.69


     init_run     :    107.56s CPU    109.56s WALL (       1 calls)
     electrons    :   4901.00s CPU   4990.82s WALL (       1 calls)
     forces       :     34.55s CPU     35.08s WALL (       1 calls)
     stress       :    300.92s CPU    301.88s WALL (       1 calls)

     Called by init_run:
     wfcinit      :     94.10s CPU     95.82s WALL (       1 calls)
     potinit      :      4.46s CPU      4.47s WALL (       1 calls)

     Called by electrons:
     c_bands      :   4229.64s CPU   4300.73s WALL (      22 calls)
     sum_band     :    635.81s CPU    649.13s WALL (      22 calls)
     v_of_rho     :      8.84s CPU      9.12s WALL (      23 calls)
     newd         :     25.60s CPU     30.97s WALL (      23 calls)
     mix_rho      :      2.35s CPU      2.38s WALL (      22 calls)

     Called by c_bands:
     init_us_2    :     24.68s CPU     24.77s WALL (     188 calls)
     cegterg      :   4157.63s CPU   4228.63s WALL (      88 calls)

     Called by sum_band:
     sum_band:bec :      0.21s CPU      0.20s WALL (      88 calls)
     addusdens    :     36.32s CPU     42.28s WALL (      22 calls)

     Called by *egterg:
     h_psi        :   3063.44s CPU   3107.32s WALL (     363 calls)
     s_psi        :    312.77s CPU    312.80s WALL (     363 calls)
     g_psi        :      5.44s CPU      5.42s WALL (     271 calls)
     cdiaghg      :    132.94s CPU    133.02s WALL (     359 calls)

     Called by h_psi:
     h_psi:pot    :   3046.30s CPU   3090.03s WALL (     363 calls)
     h_psi:calbec :    294.98s CPU    295.19s WALL (     363 calls)
     vloc_psi     :   2437.13s CPU   2480.61s WALL (     363 calls)
     add_vuspsi   :    314.18s CPU    314.23s WALL (     363 calls)

     General routines
     calbec       :    418.31s CPU    418.62s WALL (     471 calls)
     fft          :      7.84s CPU      8.25s WALL (     323 calls)
     fftw         :   2477.28s CPU   2526.57s WALL (  211996 calls)

     Parallel routines
     fft_scatt_xy :    426.13s CPU    426.44s WALL (  212319 calls)
     fft_scatt_yz :    462.52s CPU    489.78s WALL (  212319 calls)

     PWSCF        :     1h29m CPU        1h30m WALL


   This run was terminated on:   0:26:16  28Oct2021            

=------------------------------------------------------------------------------=
   JOB DONE.
=------------------------------------------------------------------------------=
Note: The following floating-point exceptions are signalling: IEEE_DIVIDE_BY_ZERO IEEE_UNDERFLOW_FLAG IEEE_DENORMAL
Note: The following floating-point exceptions are signalling: IEEE_DIVIDE_BY_ZERO
Note: The following floating-point exceptions are signalling: IEEE_DIVIDE_BY_ZERO
Note: The following floating-point exceptions are signalling: IEEE_DIVIDE_BY_ZERO
